26
	Energy:       7.4226595
C         -4.57563       -3.13300        0.00000
C         -3.46428       -1.95596        0.00000
H         -4.16243       -4.01366       -0.44565
H         -5.43014       -2.81670       -0.56096
H         -4.86889       -3.34663        1.00661
C         -2.10982       -3.18492       -0.00000
H         -3.48813       -1.33865        0.87365
H         -3.49360       -1.19703       -0.75371
C         -0.46017       -2.09443       -0.00000
H         -2.15696       -3.80089       -0.87365
H         -2.16066       -3.84918        0.83731
C          1.05057       -3.23685        0.00000
H         -0.44060       -1.47698        0.87365
H         -0.44059       -1.47663       -0.87341
C          2.82178       -2.11174       -0.00000
H          1.02539       -3.85410       -0.87365
H          1.02581       -3.84371        0.88092
C          4.34988       -3.18492       -0.00000
H          2.83610       -1.49414        0.87365
H          2.83535       -1.52635       -0.89556
C          6.06618       -2.22811        0.00000
H          4.31787       -3.80186       -0.87365
H          4.32153       -3.73125        0.91958
O          5.98554       -0.64722        0.00000
O          7.81342       -3.05874        0.00000
H          7.88813       -3.99276        0.00000
