38
	Energy:     172.8119154
N          2.72370       -8.21815       -0.44271
C          3.76506       -7.71042        0.45528
H          1.81939       -7.74966       -0.18229
H          2.55453       -9.22808       -0.22307
N          3.90507       -6.25741        0.36559
N          5.04549       -8.42735        0.32720
C          5.10448       -5.62631        0.44836
H          3.03641       -5.69563        0.32224
C          6.21095       -7.86322        0.38659
C          6.36534       -6.40675        0.53217
O          5.14778       -4.40088        0.45598
N          7.54819       -5.86863        0.67021
N          7.41425       -8.62254        0.35501
C          8.69041       -7.98098        0.50638
C          8.79368       -6.62707        0.69938
H          9.57492       -8.60236        0.42478
C         10.21288       -5.89519        0.69887
N         10.93249       -5.69536        2.01518
H         10.06235       -4.90909        0.22305
H         10.86618       -6.46943        0.00360
C         12.36323       -5.14436        2.10111
H         10.96295       -6.59379        2.55267
C         12.91087       -5.09767        3.50679
C         13.16405       -4.68967        0.93755
H         12.01040       -4.11896        2.39068
C         14.41061       -4.68133        3.74786
H         13.16321       -6.43162        3.47398
H         12.39853       -5.09978        4.34141
C         14.58140       -4.05260        1.19001
H         12.65224       -3.99769        0.22884
H         13.32183       -5.62439        0.36580
C         15.23021       -4.10951        2.58203
H         15.05513       -5.42169        4.28470
H         14.31522       -3.88272        4.51598
H         16.25880       -4.53806        2.54431
H         15.49511       -3.05832        2.87291
H         14.60745       -2.97452        0.85758
H         15.30667       -4.49116        0.47219
