 operating system is UNIX !

 ridft (yamuna) : TURBOMOLE V7.2 ( 21454 ) 4 Oct 2017 at 12:48:15
 Copyright (C) 2017 TURBOMOLE GmbH, Karlsruhe


    2019-08-21 12:21:07.770 



                                  r i d f t

                        DFT program with RI approximation 
                                for coulomb part 




                                                 
                                 References:     
                                                 
          TURBOMOLE:                             
              R. Ahlrichs, M. Baer, M. Haeser, H. Horn, and
              C. Koelmel
              Electronic structure calculations on workstation
              computers: the program system TURBOMOLE
              Chem. Phys. Lett. 162: 165 (1989)
          Density Functional:                              
              O. Treutler and R. Ahlrichs                      
              Efficient Molecular Numerical Integration Schemes
              J. Chem. Phys. 102: 346 (1995)                   
          Parallel Version:                                
              Performance of parallel TURBOMOLE for Density    
              Functional Calculations                          
              M. v. Arnim and R. Ahlrichs                      
              J. Comp. Chem. 19: 1746 (1998)                   
          RI-J Method:                                     
              Auxiliary Basis Sets to approximate Coulomb      
              Potentials                                       
              Chem. Phys. Lett. 240: 283 (1995)                
              K. Eichkorn, O. Treutler, H. Oehm, M. Haeser     
              and R. Ahlrichs                                  
              Chem. Phys. Lett. 242: 652 (1995)                
                                                           
              Auxiliary Basis Sets for Main Row Atoms and their
              Use to approximate Coulomb Potentials            
              K. Eichkorn, F. Weigend, O. Treutler and         
              R. Ahlrichs                                      
              Theo. Chem. Acc. 97: 119 (1997)                   
                                                           
              Accurate Coulomb-fitting basis sets for H to Rn 
              F. Weigend                                        
              Phys. Chem. Chem. Phys. 8: 1057 (2006)            
                                                           
          Multipole accelerated RI-J (MARI-J):             
              Fast evaluation of the Coulomb potential for     
              electron densities using multipole accelerated   
              resolution of identity approximation             
              M. Sierka, A. Hogekamp and R. Ahlrichs           
              J. Chem. Phys. 118: 9136 (2003)                  
          RI-JK Method:                                     
              A fully direct RI-HF algorithm: Implementation,
              optimised auxiliary basis sets, demonstration of
              accuracy and efficiency                         
              F. Weigend                                      
              Phys. Chem. Chem. Phys. 4: 4285 (2002)           
          Two-component HF and DFT with spin-orbit coupling:  
              Self-consistent treatment of spin-orbit         
              interactions with efficient Hartree-Fock and    
              density functional methods                      
              M. K. Armbruster, F. Weigend, C. van Wüllen and 
              W. Klopper                                      
              Phys. Chem. Chem. Phys. 10: 1748 (2008)         
          Relativistic all-electron 2c calculations           
              An efficient implementation of two-component    
              relativistic exact-decoupling methods for large 
              molecules                                       
              D. Peng, N. Middendorf, F. Weigend, M. Reiher   
              J. Chem. Phys. 138, 184105 (2013)               
                                         




              +--------------------------------------------------+
              |      general information about current run       |
              +--------------------------------------------------+

 

 DENSITY CONVERGENCE CHECK SWITCHED ON !
 SCF CONVERGENCE IF RMS(delta[D]) <     0.1000000000E-06

 PBE0 hybrid functional
 exchange:    3/4 (LDA+PBE) + 1/4 HF
 correlation: LDA (PW) + PBE
 A Hybrid-DFT calculation using the RI-J approximation will be carried out.
 Allocatable memory for RI due to $ricore (MB):                   500


              +--------------------------------------------------+
              | Atomic coordinate, charge and isotop information |
              +--------------------------------------------------+

                    atomic coordinates            atom    charge  isotop
         -0.68901305   -0.22289320   -0.01678077    c      6.000     0
         -3.22980652    1.05339004   -0.19743859    c      6.000     0
          0.77711208    1.24115323    0.30658917    h      1.000     0
         -0.18417271   -1.29438681   -1.75419497    h      1.000     0
         -0.62670877   -1.59354936    1.57064588    h      1.000     0
         -3.41414931    3.58522621   -0.03392058    o      8.000     0
         -5.15422803   -0.20393924   -0.47252602    o      8.000     0
 
       center of nuclear mass  :   -3.11952635    1.05705591   -0.17870844
       center of nuclear charge:   -2.97076469    0.98020948   -0.16818867

              +--------------------------------------------------+
              |               basis set information              |
              +--------------------------------------------------+

              we will work with the 1s 3p 5d 7f 9g ... basis set
              ...i.e. with spherical basis functions...

   type   atoms  prim   cont   basis
   ---------------------------------------------------------------------------
    c        2     24     14   def2-SVP   [3s2p1d|7s4p1d]
    h        3      7      5   def2-SVP   [2s1p|4s1p]
    o        2     24     14   def2-SVP   [3s2p1d|7s4p1d]
   ---------------------------------------------------------------------------
   total:    7    117     71
   ---------------------------------------------------------------------------

   total number of primitive shells          :   29
   total number of contracted shells         :   33
   total number of cartesian basis functions :   75
   total number of SCF-basis functions       :   71


 integral neglect threshold       :  0.44E-09
 integral storage threshold THIZE :  0.10E-04
 integral storage threshold THIME :         5

 RI-J AUXILIARY BASIS SET information:

              we will work with the 1s 3p 5d 7f 9g ... basis set
              ...i.e. with spherical basis functions...

   type   atoms  prim   cont   basis
   ---------------------------------------------------------------------------
    c        2     70     49   def2-SVP   [6s4p3d1f1g|12s5p4d2f1g]
    h        3     16     11   def2-SVP   [3s1p1d|5s2p1d]
    o        2     70     49   def2-SVP   [6s4p3d1f1g|12s5p4d2f1g]
   ---------------------------------------------------------------------------
   total:    7    328    229
   ---------------------------------------------------------------------------

   total number of primitive shells          :   56
   total number of contracted shells         :   75
   total number of cartesian basis functions :  280
   total number of SCF-basis functions       :  229


 symmetry group of the molecule :   c1 

 the group has the following generators :
   c1(z)

    1 symmetry operations found

 there are 1 real representations :   a   

 maximum number of shells which are related by symmetry :  1

 ==============================================================================
                      COSMO switched on
 ==============================================================================
 COSMO stati: segments per atom: H   32 other atoms   92
 COSMO statistics: nps    337 npspher:    198
 COSMO surface:
   number of segments:  337
   area (bohr**2):      322.851374
   volume (bohr**3):    488.322570
 COSMO: check number of disjunct cavities:

       ... OK contiguous cavity found

    mo occupation :
   irrep   mo's   occupied
    a       71       16
 
 number of basis functions   :                     71
 number of occupied orbitals :                     16
 
  
           ------------------
           density functional
           ------------------
 PBE0 hybrid functional
 exchange:    3/4 (LDA+PBE) + 1/4 HF
 correlation: LDA (PW) + PBE

 spherical integration : Lebedev's spherical grid
 spherical gridsize    :                     5
    i.e. gridpoints    :                   590
 value for diffuse not defined
 radial integration    : Chebyshev 2nd kind (scaling 3)
 radial gridsize       :                     8
 integration cells     :                     7
 partition function    : becke
 partition sharpness   :                     3
  

 biggest AO integral is expected to be     4.776656448
  
           ------------------------
               RI-J - INFORMATION
           ------------------------
 Contributions to RI integral batches: 
  neglected integral batches:                     6
  direct contribution:                            0
  memory contribution:                   555
 Memory core needed for (P|Q) and Cholesky      1 MByte
 Memory core minimum needed except of (P|Q)     1 MByte
 Total minimum memory core needed (sum)         1 MByte
  
 ****************************************
 Memory allocated for RI-J     7 MByte
 ****************************************
                                            

          ------------------------
          nuclear repulsion energy  :   110.956375122    
          ------------------------


         -----------------
         -S,T+V- integrals
         -----------------

 1e-integrals will be neglected if expon. factor < 0.445595E-10
 
   Difference densities algorithm switched on.
   The maximal number of linear combinations of
   difference densities is                    20 .

 DIIS switched on: error vector is FDS-SDF
 Max. Iterations for DIIS is     :   4
 DIIS matrix (see manual) 
    Scaling factor of diagonals  :  1.200
    threshold for scaling factor :  0.000

 scf convergence criterion : increment of total energy < .1000000D-05
                  and increment of one-electron energy < .1000000D-02

  MOs are in ASCII format !


 automatic virtual orbital shift switched on 
      shift if e(lumo)-e(homo) < 0.10000000    


 reading orbital data $scfmo  from file mos
 orbital characterization : scfconv=6

 DSCF restart information will be dumped onto file mos


 Starting SCF iterations

          Overall gridpoints after grid construction =        115222

 ITERATION  ENERGY          1e-ENERGY        2e-ENERGY     RMS[dD(SAO)]   TOL
   1  -228.18160449898    -540.19903381     201.06105419    0.000D+00 0.444D-09
                            Exc = -22.1201245581     Coul =  230.204677646    
                            exK = -7.02349889436    
                              N = 32.000000030    
                          Ediel =-0.122859133719    
                            current damping = 0.700
 
          max. resid. norm for Fia-block=  3.049D-05 for orbital     15a         
          max. resid. fock norm         =  4.761D-05 for orbital     16a         

 ITERATION  ENERGY          1e-ENERGY        2e-ENERGY     RMS[dD(SAO)]   TOL
   2  -228.18160450187    -540.19902330     201.06104368    0.303D-05 0.282D-09
                            Exc = -22.1201202294      Eck =  223.181163907    
                              N = 32.000000030    
                          Ediel =-0.122859474319    
                            current damping = 0.700
 
          Norm of current diis error: 0.11264E-03
          max. resid. norm for Fia-block=  1.041D-05 for orbital     15a         
          max. resid. fock norm         =  1.394D-05 for orbital     15a         

 ENERGY & DENSITY CONVERGED !


 ITERATION  ENERGY          1e-ENERGY        2e-ENERGY     RMS[dD(SAO)]   TOL
   3  -228.18160449724    -540.19902628     201.06104666    0.103D-05 0.257D-09
                            Exc = -22.1201207269      Eck =  223.181167388    
                              N = 32.000000030    
                          Ediel =-0.122858954678    
                            current damping = 0.750
 
          Norm of current diis error: 0.36622E-04
          max. resid. norm for Fia-block=  3.494D-06 for orbital      5a         
          max. resid. fock norm         =  4.888D-06 for orbital      5a         

 End of SCF iterations
 COSMO: write data to file cosmo_transfer.tmp

   convergence criteria satisfied after     3 iterations


                  ------------------------------------------ 
                 |  total energy      =   -228.18160449724  |
                  ------------------------------------------ 
                 :  kinetic energy    =    226.26372984232  :
                 :  potential energy  =   -454.44533433957  :
                 :  virial theorem    =      1.99159496376  :
                 :  wavefunction norm =      1.00000000000  :
                  .......................................... 


 orbitals $scfmo  will be written to file mos

    irrep                 12a         13a         14a         15a         16a   
 eigenvalues H         -0.35513    -0.33916    -0.23052    -0.22169    -0.19858
            eV          -9.6635     -9.2290     -6.2728     -6.0325     -5.4036
 occupation              2.0000      2.0000      2.0000      2.0000      2.0000 

    irrep                 17a         18a         19a         20a         21a   
 eigenvalues H          0.07695     0.10427     0.15689     0.18094     0.26265
            eV           2.0940      2.8373      4.2692      4.9238      7.1471
 
 ==============================================================================
                                  COSMO RESULTS
 ==============================================================================
  PARAMETER:
    nppa:      1082
    nspa:        92
    nsph:        32
    nps:        337
    npspher:    198
    disex:   10.0000    
    disex2:  4146.32    
    rsolv [A]: 1.3000
    routf:     0.8500
    phsran:    0.0    
    ampran:   0.10E-04
    cavity:  closed
    epsilon:    80.000
    refind:     1.300
    fepsi:      0.9813665
  CAVITY VOLUME/AREA [a.u.]:
    surface: V1.0, A matrix: V1.0
    area:   322.85
    volume:   488.32
  SCREENING CHARGE:
    cosmo      :   0.985468
    correction :   0.013341
    total      :   0.998809
  ENERGIES [a.u.]:
    Total energy            =    -228.1816044972448
    Total energy + OC corr. =     -228.1835187547
    Dielectric energy       =       -0.1228589547
    Diel. energy + OC corr. =       -0.1247732122
  ELEMENT RADIUS [A]: ATOM LIST
    c  2.00: 1,2
    h  1.30: 3-5
    o  1.72: 6,7
 ==============================================================================
 
 
 
 ==============================================================================
                           electrostatic moments
 ==============================================================================

 reference point for electrostatic moments:    0.00000   0.00000   0.00000

 
              nuc           elec       ->  total
 ------------------------------------------------------------------------------
                          charge      
 ------------------------------------------------------------------------------
          31.000000     -32.000000      -1.000000
 
 ------------------------------------------------------------------------------
                       dipole moment  
 ------------------------------------------------------------------------------
   x     -92.093705      96.792214       4.698509
   y      30.386494     -32.639451      -2.252957
   z      -5.213849       5.466459       0.252610
 
   | dipole moment | =     5.2169 a.u. =    13.2599 debye 
 
 ------------------------------------------------------------------------------
                     quadrupole moment
 ------------------------------------------------------------------------------
  xx     372.248778    -413.441218     -41.192440
  yy     115.874676    -144.011136     -28.136460
  zz       7.669158     -25.644476     -17.975318
  xy    -106.805207     114.129403       7.324196
  xz      23.883029     -25.455891      -1.572862
  yz      -1.279179       1.170315      -0.108864
 
     1/3  trace=     -29.101406
     anisotropy=      23.974150
 
 ==============================================================================
 


    ------------------------------------------------------------------------
         total  cpu-time :   1.05 seconds
         total wall-time :   1.06 seconds
    ------------------------------------------------------------------------

   ****  ridft : all done  ****


    2019-08-21 12:21:08.824 

