 operating system is UNIX !

 ridft (yamuna) : TURBOMOLE V7.2 ( 21454 ) 4 Oct 2017 at 12:48:15
 Copyright (C) 2017 TURBOMOLE GmbH, Karlsruhe


    2019-08-22 13:10:25.906 



                                  r i d f t

                        DFT program with RI approximation 
                                for coulomb part 




                                                 
                                 References:     
                                                 
          TURBOMOLE:                             
              R. Ahlrichs, M. Baer, M. Haeser, H. Horn, and
              C. Koelmel
              Electronic structure calculations on workstation
              computers: the program system TURBOMOLE
              Chem. Phys. Lett. 162: 165 (1989)
          Density Functional:                              
              O. Treutler and R. Ahlrichs                      
              Efficient Molecular Numerical Integration Schemes
              J. Chem. Phys. 102: 346 (1995)                   
          Parallel Version:                                
              Performance of parallel TURBOMOLE for Density    
              Functional Calculations                          
              M. v. Arnim and R. Ahlrichs                      
              J. Comp. Chem. 19: 1746 (1998)                   
          RI-J Method:                                     
              Auxiliary Basis Sets to approximate Coulomb      
              Potentials                                       
              Chem. Phys. Lett. 240: 283 (1995)                
              K. Eichkorn, O. Treutler, H. Oehm, M. Haeser     
              and R. Ahlrichs                                  
              Chem. Phys. Lett. 242: 652 (1995)                
                                                           
              Auxiliary Basis Sets for Main Row Atoms and their
              Use to approximate Coulomb Potentials            
              K. Eichkorn, F. Weigend, O. Treutler and         
              R. Ahlrichs                                      
              Theo. Chem. Acc. 97: 119 (1997)                   
                                                           
              Accurate Coulomb-fitting basis sets for H to Rn 
              F. Weigend                                        
              Phys. Chem. Chem. Phys. 8: 1057 (2006)            
                                                           
          Multipole accelerated RI-J (MARI-J):             
              Fast evaluation of the Coulomb potential for     
              electron densities using multipole accelerated   
              resolution of identity approximation             
              M. Sierka, A. Hogekamp and R. Ahlrichs           
              J. Chem. Phys. 118: 9136 (2003)                  
          RI-JK Method:                                     
              A fully direct RI-HF algorithm: Implementation,
              optimised auxiliary basis sets, demonstration of
              accuracy and efficiency                         
              F. Weigend                                      
              Phys. Chem. Chem. Phys. 4: 4285 (2002)           
          Two-component HF and DFT with spin-orbit coupling:  
              Self-consistent treatment of spin-orbit         
              interactions with efficient Hartree-Fock and    
              density functional methods                      
              M. K. Armbruster, F. Weigend, C. van Wüllen and 
              W. Klopper                                      
              Phys. Chem. Chem. Phys. 10: 1748 (2008)         
          Relativistic all-electron 2c calculations           
              An efficient implementation of two-component    
              relativistic exact-decoupling methods for large 
              molecules                                       
              D. Peng, N. Middendorf, F. Weigend, M. Reiher   
              J. Chem. Phys. 138, 184105 (2013)               
                                         




              +--------------------------------------------------+
              |      general information about current run       |
              +--------------------------------------------------+

 

 DENSITY CONVERGENCE CHECK SWITCHED ON !
 SCF CONVERGENCE IF RMS(delta[D]) <     0.1000000000E-06

 PBE0 hybrid functional
 exchange:    3/4 (LDA+PBE) + 1/4 HF
 correlation: LDA (PW) + PBE
 A Hybrid-DFT calculation using the RI-J approximation will be carried out.
 Allocatable memory for RI due to $ricore (MB):                   500


              +--------------------------------------------------+
              | Atomic coordinate, charge and isotop information |
              +--------------------------------------------------+

                    atomic coordinates            atom    charge  isotop
          0.38935464    0.65845580   -2.42420021    c      6.000     0
          0.38966474    0.65796673    2.42420304    c      6.000     0
         -2.14876148   -0.59392316    2.34265248    c      6.000     0
         -2.14878000   -0.59410306   -2.34280063    c      6.000     0
          1.65968505    1.36289978    0.00000813    c      6.000     0
         -3.74476785    0.73965638    2.25216483    h      1.000     0
         -3.74512104    0.73910269   -2.25269433    h      1.000     0
         -2.43507124   -1.83666905    3.97872143    h      1.000     0
         -2.43457159   -1.83713581   -3.97874354    h      1.000     0
          3.70062839    2.41613391   -0.00000964    o      8.000     0
          1.67861103    1.09078224    4.59850379    c      6.000     0
          3.57079097    1.87106206    4.29219411    h      1.000     0
          1.67791183    1.09236129   -4.59853176    c      6.000     0
          3.56973877    1.87344803   -4.29206958    h      1.000     0
          0.96636286    0.61291925   -7.20777112    c      6.000     0
         -0.12319427   -0.42896575  -12.29721725    c      6.000     0
          2.91791100    0.10989570   -8.94776083    c      6.000     0
         -1.54144526    0.65773694   -8.09967026    c      6.000     0
         -2.07510675    0.14703165  -10.62067698    c      6.000     0
          2.37650277   -0.43277941  -11.45766088    c      6.000     0
          4.87541991    0.13325139   -8.29685903    h      1.000     0
         -3.08286028    1.23002765   -6.85748184    h      1.000     0
         -4.02200466    0.22772674  -11.29329023    h      1.000     0
          3.91056770   -0.84121197  -12.77264684    h      1.000     0
          0.96664537    0.61114234    7.20760010    c      6.000     0
         -0.12350778   -0.42734134   12.29761145    c      6.000     0
         -1.54102858    0.65869144    8.09963341    c      6.000     0
          2.91780064    0.10612475    8.94746093    c      6.000     0
          2.37607796   -0.43479027   11.45768733    c      6.000     0
         -2.07495047    0.14995676   10.62097310    c      6.000     0
         -3.08207265    1.23134139    6.85714680    h      1.000     0
          4.87521299    0.12629871    8.29614717    h      1.000     0
          3.90982107   -0.84463615   12.77262492    h      1.000     0
         -4.02165336    0.23336700   11.29380972    h      1.000     0
         -2.34676925   -2.17063392    0.00001984    n      7.000     0
         -0.92086506   -3.48645779    0.00007861    h      1.000     0
         -4.01652049   -3.14595352    0.00006368    h      1.000     0
         -0.54957790   -0.83323694  -14.27353234    h      1.000     0
         -0.55007792   -0.82954253   14.27431280    h      1.000     0
 
       center of nuclear mass  :    0.35073918    0.22820266    0.00000216
       center of nuclear charge:    0.30287449    0.19666287    0.00000184

              +--------------------------------------------------+
              |               basis set information              |
              +--------------------------------------------------+

              we will work with the 1s 3p 5d 7f 9g ... basis set
              ...i.e. with spherical basis functions...

   type   atoms  prim   cont   basis
   ---------------------------------------------------------------------------
    c       19     24     14   def2-SVP   [3s2p1d|7s4p1d]
    h       18      7      5   def2-SVP   [2s1p|4s1p]
    o        1     24     14   def2-SVP   [3s2p1d|7s4p1d]
    n        1     24     14   def2-SVP   [3s2p1d|7s4p1d]
   ---------------------------------------------------------------------------
   total:   39    630    384
   ---------------------------------------------------------------------------

   total number of primitive shells          :   41
   total number of contracted shells         :  180
   total number of cartesian basis functions :  405
   total number of SCF-basis functions       :  384


 integral neglect threshold       :  0.82E-10
 integral storage threshold THIZE :  0.10E-04
 integral storage threshold THIME :         5

 RI-J AUXILIARY BASIS SET information:

              we will work with the 1s 3p 5d 7f 9g ... basis set
              ...i.e. with spherical basis functions...

   type   atoms  prim   cont   basis
   ---------------------------------------------------------------------------
    c       19     70     49   def2-SVP   [6s4p3d1f1g|12s5p4d2f1g]
    h       18     16     11   def2-SVP   [3s1p1d|5s2p1d]
    o        1     70     49   def2-SVP   [6s4p3d1f1g|12s5p4d2f1g]
    n        1     70     49   def2-SVP   [6s4p3d1f1g|12s5p4d2f1g]
   ---------------------------------------------------------------------------
   total:   39   1758   1227
   ---------------------------------------------------------------------------

   total number of primitive shells          :   80
   total number of contracted shells         :  405
   total number of cartesian basis functions : 1497
   total number of SCF-basis functions       : 1227


 symmetry group of the molecule :   c1 

 the group has the following generators :
   c1(z)

    1 symmetry operations found

 there are 1 real representations :   a   

 maximum number of shells which are related by symmetry :  1

 ==============================================================================
                      COSMO switched on
 ==============================================================================
 COSMO stati: segments per atom: H   32 other atoms   92
 COSMO statistics: nps   1515 npspher:    572
 COSMO surface:
   number of segments: 1515
   area (bohr**2):     1130.515281
   volume (bohr**3):   2329.142404
 COSMO: check number of disjunct cavities:

       ... OK contiguous cavity found

    mo occupation :
   irrep   mo's   occupied
    a      384       73
 
 number of basis functions   :                    384
 number of occupied orbitals :                     73
 
  
           ------------------
           density functional
           ------------------
 PBE0 hybrid functional
 exchange:    3/4 (LDA+PBE) + 1/4 HF
 correlation: LDA (PW) + PBE

 spherical integration : Lebedev's spherical grid
 spherical gridsize    :                     5
    i.e. gridpoints    :                   590
 value for diffuse not defined
 radial integration    : Chebyshev 2nd kind (scaling 3)
 radial gridsize       :                     8
 integration cells     :                    39
 partition function    : becke
 partition sharpness   :                     3
  

 biggest AO integral is expected to be     4.776656448
  
           ------------------------
               RI-J - INFORMATION
           ------------------------
 Contributions to RI integral batches: 
  neglected integral batches:                  5933
  direct contribution:                          856
  memory contribution:                  9501
 Memory core needed for (P|Q) and Cholesky     12 MByte
 Memory core minimum needed except of (P|Q)     1 MByte
 Total minimum memory core needed (sum)        13 MByte
  
 ****************************************
 Memory allocated for RI-J   474 MByte
 ****************************************
                                            

          ------------------------
          nuclear repulsion energy  :   1471.06801597    
          ------------------------


         -----------------
         -S,T+V- integrals
         -----------------

 1e-integrals will be neglected if expon. factor < 0.825176E-11
 
   Difference densities algorithm switched on.
   The maximal number of linear combinations of
   difference densities is                    20 .

 DIIS switched on: error vector is FDS-SDF
 Max. Iterations for DIIS is     :   4
 DIIS matrix (see manual) 
    Scaling factor of diagonals  :  1.200
    threshold for scaling factor :  0.000

 scf convergence criterion : increment of total energy < .1000000D-05
                  and increment of one-electron energy < .1000000D-02

  MOs are in ASCII format !


 automatic virtual orbital shift switched on 
      shift if e(lumo)-e(homo) < 0.10000000    


 reading orbital data $scfmo  from file mos
 orbital characterization : expanded
 mo provided and orthogonalized by Cholesky decomposition

 DSCF restart information will be dumped onto file mos


 Starting SCF iterations

          Overall gridpoints after grid construction =        603683

 ITERATION  ENERGY          1e-ENERGY        2e-ENERGY     RMS[dD(SAO)]   TOL
   1  -860.23919459849    -4034.8857245     1703.5785140    0.000D+00 0.823D-10
                            Exc = -91.8426756598     Coul =  1824.45857354    
                            exK = -29.0373839085    
                              N = 145.99999459    
                          Ediel =-0.188476201951    
                            current damping = 0.700
 
          max. resid. norm for Fia-block=  3.225D-01 for orbital     46a         
          max. resid. fock norm         =  1.077D+00 for orbital    286a         

 ITERATION  ENERGY          1e-ENERGY        2e-ENERGY     RMS[dD(SAO)]   TOL
   2  -862.38291090502    -4055.5535472     1722.1026203    0.842D-02 0.520D-10
                            Exc = -92.9958749277      Eck =  1815.09849521    
                              N = 145.99999565    
                          Ediel =-0.144326690517    
                            current damping = 0.650
 
          Norm of current diis error:  2.3604    
          max. resid. norm for Fia-block=  1.610D-01 for orbital      1a         
          max. resid. fock norm         =  2.363D-01 for orbital    383a         

 ITERATION  ENERGY          1e-ENERGY        2e-ENERGY     RMS[dD(SAO)]   TOL
   3  -862.87022243985    -4063.2666818     1729.3284433    0.420D-02 0.408D-10
                            Exc = -93.6174356258      Eck =  1822.94587897    
                              N = 145.99999661    
                          Ediel =-0.132722629498    
                            current damping = 0.550
 
          Norm of current diis error:  1.1609    
          max. resid. norm for Fia-block=  5.796D-02 for orbital     24a         
          max. resid. fock norm         =  6.503D-02 for orbital     24a         

 ITERATION  ENERGY          1e-ENERGY        2e-ENERGY     RMS[dD(SAO)]   TOL
   4  -863.02290251045    -4067.0149716     1732.9240531    0.272D-02 0.350D-10
                            Exc = -93.8414217477      Eck =  1826.76547487    
                              N = 145.99999715    
                          Ediel =-0.114867848442    
                            current damping = 0.450
 
          Norm of current diis error: 0.45999    
          max. resid. norm for Fia-block=  4.274D-02 for orbital     23a         
          max. resid. fock norm         =  5.867D-02 for orbital    355a         

 ITERATION  ENERGY          1e-ENERGY        2e-ENERGY     RMS[dD(SAO)]   TOL
   5  -863.04751661713    -4069.0963496     1734.9808170    0.120D-02 0.328D-10
                            Exc = -94.0252839119      Eck =  1829.00610092    
                              N = 145.99999747    
                          Ediel =-0.116260049001    
                            current damping = 0.350
 
          Norm of current diis error: 0.21694    
          max. resid. norm for Fia-block=  1.699D-02 for orbital     69a         
          max. resid. fock norm         =  2.026D-02 for orbital     69a         
          mo-orthogonalization: Cholesky decomposition

 ITERATION  ENERGY          1e-ENERGY        2e-ENERGY     RMS[dD(SAO)]   TOL
   6  -863.05431237421    -4069.7678040     1735.6454757    0.813D-03 0.311D-10
                            Exc = -94.0353369017      Eck =  1829.68081258    
                              N = 145.99999756    
                          Ediel =-0.109701070702    
                            current damping = 0.250
 
          Norm of current diis error: 0.83852E-01
          max. resid. norm for Fia-block=  6.700D-03 for orbital     22a         
          max. resid. fock norm         =  9.582D-03 for orbital     22a         

 ITERATION  ENERGY          1e-ENERGY        2e-ENERGY     RMS[dD(SAO)]   TOL
   7  -863.05528205790    -4069.8563100     1735.7330119    0.244D-03 0.304D-10
                            Exc = -94.0554261233      Eck =  1829.78843805    
                              N = 145.99999760    
                          Ediel =-0.110814834751    
                            current damping = 0.100
 
          Norm of current diis error: 0.13671E-01
          max. resid. norm for Fia-block=  9.841D-04 for orbital     73a         
          max. resid. fock norm         =  1.511D-03 for orbital    373a         

 ITERATION  ENERGY          1e-ENERGY        2e-ENERGY     RMS[dD(SAO)]   TOL
   8  -863.05531430317    -4069.9609610     1735.8376307    0.743D-04 0.298D-10
                            Exc = -94.0593849737      Eck =  1829.89701570    
                              N = 145.99999761    
                          Ediel =-0.110505572157    
                            current damping = 0.050
 
          Norm of current diis error: 0.84476E-02
          max. resid. norm for Fia-block=  4.583D-04 for orbital     72a         
          max. resid. fock norm         =  6.465D-04 for orbital     47a         

 ITERATION  ENERGY          1e-ENERGY        2e-ENERGY     RMS[dD(SAO)]   TOL
   9  -863.05532224045    -4069.9506785     1735.8273403    0.281D-04 0.296D-10
                            Exc = -94.0590838794      Eck =  1829.88642416    
                              N = 145.99999761    
                          Ediel =-0.110538837601    
                            current damping = 0.100
 
          Norm of current diis error: 0.39953E-02
          max. resid. norm for Fia-block=  1.903D-04 for orbital     69a         
          max. resid. fock norm         =  2.683D-04 for orbital     47a         

 ITERATION  ENERGY          1e-ENERGY        2e-ENERGY     RMS[dD(SAO)]   TOL
  10  -863.05532425606    -4069.9440065     1735.8206662    0.124D-04 0.294D-10
                            Exc = -94.0590373062      Eck =  1829.87970355    
                              N = 145.99999761    
                          Ediel =-0.110520599495    
                            current damping = 0.050
 
          Norm of current diis error: 0.13694E-02
          max. resid. norm for Fia-block=  6.920D-05 for orbital     23a         
          max. resid. fock norm         =  1.194D-04 for orbital    380a         
          mo-orthogonalization: Cholesky decomposition

 ITERATION  ENERGY          1e-ENERGY        2e-ENERGY     RMS[dD(SAO)]   TOL
  11  -863.05532436531    -4069.9473866     1735.8240463    0.445D-05 0.293D-10
                            Exc = -94.0591381319      Eck =  1829.88318441    
                              N = 145.99999761    
                          Ediel =-0.110544343186    
                            current damping = 0.100
 
          Norm of current diis error: 0.10690E-02
          max. resid. norm for Fia-block=  5.505D-05 for orbital     69a         
          max. resid. fock norm         =  8.045D-05 for orbital     69a         

 ITERATION  ENERGY          1e-ENERGY        2e-ENERGY     RMS[dD(SAO)]   TOL
  12  -863.05532444661    -4069.9482760     1735.8249356    0.248D-05 0.292D-10
                            Exc = -94.0590955338      Eck =  1829.88403111    
                              N = 145.99999761    
                          Ediel =-0.110523381222    
                            current damping = 0.050
 
          Norm of current diis error: 0.30795E-03
          max. resid. norm for Fia-block=  2.460D-05 for orbital     69a         
          max. resid. fock norm         =  3.574D-05 for orbital     69a         

 ENERGY & DENSITY CONVERGED !


 ITERATION  ENERGY          1e-ENERGY        2e-ENERGY     RMS[dD(SAO)]   TOL
  13  -863.05532444036    -4069.9476759     1735.8243355    0.108D-05 0.289D-10
                            Exc = -94.0591344379      Eck =  1829.88346997    
                              N = 145.99999761    
                          Ediel =-0.110530618138    
                            current damping = 0.100
 
          Norm of current diis error: 0.13850E-03
          max. resid. norm for Fia-block=  5.292D-06 for orbital     58a         
          max. resid. fock norm         =  7.686D-06 for orbital     69a         

 End of SCF iterations
 COSMO: write data to file cosmo_transfer.tmp

   convergence criteria satisfied after    13 iterations


                  ------------------------------------------ 
                 |  total energy      =   -863.05532444036  |
                  ------------------------------------------ 
                 :  kinetic energy    =    854.17219377579  :
                 :  potential energy  =  -1717.22751821615  :
                 :  virial theorem    =      1.98970734504  :
                 :  wavefunction norm =      1.00000000000  :
                  .......................................... 


 <geterg> : there is no data group $energy 


 <skperg> : $end is missing 


 orbitals $scfmo  will be written to file mos

    irrep                 69a         70a         71a         72a         73a   
 eigenvalues H         -0.29069    -0.28292    -0.28242    -0.26617    -0.25850
            eV          -7.9102     -7.6987     -7.6852     -7.2428     -7.0342
 occupation              2.0000      2.0000      2.0000      2.0000      2.0000 

    irrep                 74a         75a         76a         77a         78a   
 eigenvalues H         -0.10375    -0.05286    -0.01857    -0.01752    -0.00121
            eV          -2.8231     -1.4384     -0.5054     -0.4767     -0.0329
 
 ==============================================================================
                                  COSMO RESULTS
 ==============================================================================
  PARAMETER:
    nppa:      1082
    nspa:        92
    nsph:        32
    nps:       1515
    npspher:    572
    disex:   10.0000    
    disex2:  4395.29    
    rsolv [A]: 1.3000
    routf:     0.8500
    phsran:    0.0    
    ampran:   0.10E-04
    cavity:  closed
    epsilon:    80.000
    refind:     1.300
    fepsi:      0.9813665
  CAVITY VOLUME/AREA [a.u.]:
    surface: V1.0, A matrix: V1.0
    area:  1130.52
    volume:  2329.14
  SCREENING CHARGE:
    cosmo      :  -1.028955
    correction :   0.029269
    total      :  -0.999686
  ENERGIES [a.u.]:
    Total energy            =    -863.0553244403641
    Total energy + OC corr. =     -863.0527089103
    Dielectric energy       =       -0.1105306181
    Diel. energy + OC corr. =       -0.1079150881
  ELEMENT RADIUS [A]: ATOM LIST
    c  2.00: 1-5,11,13,15-20,25-30
    h  1.30: 6-9,12,14,21-24,31-34,36-39
    o  1.72: 10
    n  1.83: 35
 ==============================================================================
 
 
 
 ==============================================================================
                           electrostatic moments
 ==============================================================================

 reference point for electrostatic moments:    0.00000   0.00000   0.00000

 
              nuc           elec       ->  total
 ------------------------------------------------------------------------------
                          charge      
 ------------------------------------------------------------------------------
         147.000000    -146.000000       1.000000
 
 ------------------------------------------------------------------------------
                       dipole moment  
 ------------------------------------------------------------------------------
   x      44.522550     -47.816436      -3.293887
   y      28.909442     -31.475038      -2.565596
   z       0.000271      -0.000249       0.000022
 
   | dipole moment | =     4.1752 a.u. =    10.6122 debye 
 
 ------------------------------------------------------------------------------
                     quadrupole moment
 ------------------------------------------------------------------------------
  xx     729.610065    -804.084879     -74.474814
  yy     171.993637    -260.832532     -88.838895
  zz    8804.415744   -8850.704680     -46.288936
  xy     163.177947    -161.938898       1.239049
  xz      -0.008756       0.009692       0.000935
  yz      -0.099609       0.103366       0.003757
 
     1/3  trace=     -69.867548
     anisotropy=      37.553169
 
 ==============================================================================
 


    ------------------------------------------------------------------------
         total  cpu-time :  3 minutes and  0 seconds
         total wall-time :  3 minutes and  1 seconds
    ------------------------------------------------------------------------

   ****  ridft : all done  ****


    2019-08-22 13:13:26.470 

 ridft ended normally
