18
	Energy:      31.4418490
C         -0.30886       -0.90868        0.02022
C         -1.40539       -1.79668       -0.15893
C         -1.22853       -3.19149       -0.17513
C          0.04235       -3.74557       -0.05670
C          1.15046       -2.89944        0.03392
C          0.98588       -1.49677        0.07339
H          1.87209       -0.88500        0.15701
H          2.13631       -3.34777        0.09831
H         -2.08205       -3.85960       -0.25889
Cl        -3.04236       -1.18918       -0.31018
Cl         0.23654       -5.49643       -0.01071
O         -0.55971        0.44146        0.18115
C          0.12030        1.33513        1.04023
C         -0.59292        2.67935        1.22121
H          0.23543        0.84477        2.03373
H          1.13738        1.56757        0.68301
O         -1.79313        2.78722        1.81620
O         -0.01631        3.71930        0.88393
