20
	Energy:      42.3663639
C         -2.99747       -0.25468       -0.14685
C         -1.61683       -0.29931       -0.72276
O         -0.55564        0.17659       -0.01026
H         -3.14649        0.66526        0.45358
H         -3.76113       -0.29845       -0.95383
H         -3.13988       -1.14357        0.50438
O         -1.45113       -0.74010       -1.85087
C          0.69283       -0.35047       -0.06031
C          0.85703       -1.74986       -0.09682
C          2.12651       -2.32082       -0.12731
C          3.25757       -1.50785       -0.13858
C          1.84875        0.47892       -0.07510
C          3.11918       -0.11945       -0.12511
H          4.01808        0.48629       -0.13412
H         -0.00963       -2.39951       -0.08590
H          2.23487       -3.39729       -0.13964
H          4.24313       -1.95312       -0.15684
C          1.75995        1.96303       -0.06083
O          0.74265        2.53087        0.28108
O          2.82450        2.70020       -0.45225
