 operating system is UNIX !

 ridft (yamuna) : TURBOMOLE V7.2 ( 21454 ) 4 Oct 2017 at 12:48:15
 Copyright (C) 2017 TURBOMOLE GmbH, Karlsruhe


    2019-08-21 12:21:43.739 



                                  r i d f t

                        DFT program with RI approximation 
                                for coulomb part 




                                                 
                                 References:     
                                                 
          TURBOMOLE:                             
              R. Ahlrichs, M. Baer, M. Haeser, H. Horn, and
              C. Koelmel
              Electronic structure calculations on workstation
              computers: the program system TURBOMOLE
              Chem. Phys. Lett. 162: 165 (1989)
          Density Functional:                              
              O. Treutler and R. Ahlrichs                      
              Efficient Molecular Numerical Integration Schemes
              J. Chem. Phys. 102: 346 (1995)                   
          Parallel Version:                                
              Performance of parallel TURBOMOLE for Density    
              Functional Calculations                          
              M. v. Arnim and R. Ahlrichs                      
              J. Comp. Chem. 19: 1746 (1998)                   
          RI-J Method:                                     
              Auxiliary Basis Sets to approximate Coulomb      
              Potentials                                       
              Chem. Phys. Lett. 240: 283 (1995)                
              K. Eichkorn, O. Treutler, H. Oehm, M. Haeser     
              and R. Ahlrichs                                  
              Chem. Phys. Lett. 242: 652 (1995)                
                                                           
              Auxiliary Basis Sets for Main Row Atoms and their
              Use to approximate Coulomb Potentials            
              K. Eichkorn, F. Weigend, O. Treutler and         
              R. Ahlrichs                                      
              Theo. Chem. Acc. 97: 119 (1997)                   
                                                           
              Accurate Coulomb-fitting basis sets for H to Rn 
              F. Weigend                                        
              Phys. Chem. Chem. Phys. 8: 1057 (2006)            
                                                           
          Multipole accelerated RI-J (MARI-J):             
              Fast evaluation of the Coulomb potential for     
              electron densities using multipole accelerated   
              resolution of identity approximation             
              M. Sierka, A. Hogekamp and R. Ahlrichs           
              J. Chem. Phys. 118: 9136 (2003)                  
          RI-JK Method:                                     
              A fully direct RI-HF algorithm: Implementation,
              optimised auxiliary basis sets, demonstration of
              accuracy and efficiency                         
              F. Weigend                                      
              Phys. Chem. Chem. Phys. 4: 4285 (2002)           
          Two-component HF and DFT with spin-orbit coupling:  
              Self-consistent treatment of spin-orbit         
              interactions with efficient Hartree-Fock and    
              density functional methods                      
              M. K. Armbruster, F. Weigend, C. van Wüllen and 
              W. Klopper                                      
              Phys. Chem. Chem. Phys. 10: 1748 (2008)         
          Relativistic all-electron 2c calculations           
              An efficient implementation of two-component    
              relativistic exact-decoupling methods for large 
              molecules                                       
              D. Peng, N. Middendorf, F. Weigend, M. Reiher   
              J. Chem. Phys. 138, 184105 (2013)               
                                         




              +--------------------------------------------------+
              |      general information about current run       |
              +--------------------------------------------------+

 

 DENSITY CONVERGENCE CHECK SWITCHED ON !
 SCF CONVERGENCE IF RMS(delta[D]) <     0.1000000000E-06

 PBE0 hybrid functional
 exchange:    3/4 (LDA+PBE) + 1/4 HF
 correlation: LDA (PW) + PBE
 A Hybrid-DFT calculation using the RI-J approximation will be carried out.
 Allocatable memory for RI due to $ricore (MB):                   500


              +--------------------------------------------------+
              | Atomic coordinate, charge and isotop information |
              +--------------------------------------------------+

                    atomic coordinates            atom    charge  isotop
         -5.66439739   -0.48127545   -0.27750628    c      6.000     0
         -3.05536590   -0.56561393   -1.36581846    c      6.000     0
         -1.05000743    0.33370674   -0.01938859    o      8.000     0
         -5.94600438    1.25715921    0.85714198    h      1.000     0
         -7.10750565   -0.56398876   -1.80247748    h      1.000     0
         -5.93351329   -2.16103411    0.95314007    h      1.000     0
         -2.74223828   -1.39858631   -3.49763741    o      8.000     0
          1.30925896   -0.66229232   -0.11396938    c      6.000     0
          1.61955199   -3.30675617   -0.18296328    c      6.000     0
          4.01852152   -4.38571420   -0.24058103    c      6.000     0
          6.15591516   -2.84942355   -0.26187825    c      6.000     0
          3.49363119    0.90502764   -0.14191843    c      6.000     0
          5.89439596   -0.22572779   -0.23642364    c      6.000     0
          7.59307078    0.91895492   -0.25345007    h      1.000     0
         -0.01819806   -4.53441675   -0.16232747    h      1.000     0
          4.22329224   -6.41994769   -0.26388136    h      1.000     0
          8.01835365   -3.69086190   -0.29638465    h      1.000     0
          3.32582351    3.70958909   -0.11495204    c      6.000     0
          1.40340511    4.78265118    0.53116422    o      8.000     0
          5.33753146    5.10263850   -0.85462864    o      8.000     0
 
       center of nuclear mass  :    1.41427160    0.17511291   -0.54526556
       center of nuclear charge:    1.36562400    0.08812931   -0.53019599

              +--------------------------------------------------+
              |               basis set information              |
              +--------------------------------------------------+

              we will work with the 1s 3p 5d 7f 9g ... basis set
              ...i.e. with spherical basis functions...

   type   atoms  prim   cont   basis
   ---------------------------------------------------------------------------
    c        9     24     14   def2-SVP   [3s2p1d|7s4p1d]
    o        4     24     14   def2-SVP   [3s2p1d|7s4p1d]
    h        7      7      5   def2-SVP   [2s1p|4s1p]
   ---------------------------------------------------------------------------
   total:   20    361    217
   ---------------------------------------------------------------------------

   total number of primitive shells          :   29
   total number of contracted shells         :   99
   total number of cartesian basis functions :  230
   total number of SCF-basis functions       :  217


 integral neglect threshold       :  0.14E-09
 integral storage threshold THIZE :  0.10E-04
 integral storage threshold THIME :         5

 RI-J AUXILIARY BASIS SET information:

              we will work with the 1s 3p 5d 7f 9g ... basis set
              ...i.e. with spherical basis functions...

   type   atoms  prim   cont   basis
   ---------------------------------------------------------------------------
    c        9     70     49   def2-SVP   [6s4p3d1f1g|12s5p4d2f1g]
    o        4     70     49   def2-SVP   [6s4p3d1f1g|12s5p4d2f1g]
    h        7     16     11   def2-SVP   [3s1p1d|5s2p1d]
   ---------------------------------------------------------------------------
   total:   20   1022    714
   ---------------------------------------------------------------------------

   total number of primitive shells          :   56
   total number of contracted shells         :  230
   total number of cartesian basis functions :  877
   total number of SCF-basis functions       :  714


 symmetry group of the molecule :   c1 

 the group has the following generators :
   c1(z)

    1 symmetry operations found

 there are 1 real representations :   a   

 maximum number of shells which are related by symmetry :  1

 ==============================================================================
                      COSMO switched on
 ==============================================================================
 COSMO stati: segments per atom: H   32 other atoms   92
 COSMO statistics: nps    836 npspher:    383
 COSMO surface:
   number of segments:  836
   area (bohr**2):      724.435665
   volume (bohr**3):   1385.106712
 COSMO: check number of disjunct cavities:

       ... OK contiguous cavity found

    mo occupation :
   irrep   mo's   occupied
    a      217       47
 
 number of basis functions   :                    217
 number of occupied orbitals :                     47
 
  
           ------------------
           density functional
           ------------------
 PBE0 hybrid functional
 exchange:    3/4 (LDA+PBE) + 1/4 HF
 correlation: LDA (PW) + PBE

 spherical integration : Lebedev's spherical grid
 spherical gridsize    :                     5
    i.e. gridpoints    :                   590
 value for diffuse not defined
 radial integration    : Chebyshev 2nd kind (scaling 3)
 radial gridsize       :                     8
 integration cells     :                    20
 partition function    : becke
 partition sharpness   :                     3
  

 biggest AO integral is expected to be     4.776656448
  
           ------------------------
               RI-J - INFORMATION
           ------------------------
 Contributions to RI integral batches: 
  neglected integral batches:                   861
  direct contribution:                            0
  memory contribution:                  4089
 Memory core needed for (P|Q) and Cholesky      4 MByte
 Memory core minimum needed except of (P|Q)     1 MByte
 Total minimum memory core needed (sum)         5 MByte
  
 ****************************************
 Memory allocated for RI-J   148 MByte
 ****************************************
                                            

          ------------------------
          nuclear repulsion energy  :   750.868369714    
          ------------------------


         -----------------
         -S,T+V- integrals
         -----------------

 1e-integrals will be neglected if expon. factor < 0.145303E-10
 
   Difference densities algorithm switched on.
   The maximal number of linear combinations of
   difference densities is                    20 .

 DIIS switched on: error vector is FDS-SDF
 Max. Iterations for DIIS is     :   4
 DIIS matrix (see manual) 
    Scaling factor of diagonals  :  1.200
    threshold for scaling factor :  0.000

 scf convergence criterion : increment of total energy < .1000000D-05
                  and increment of one-electron energy < .1000000D-02

  MOs are in ASCII format !


 automatic virtual orbital shift switched on 
      shift if e(lumo)-e(homo) < 0.10000000    


 reading orbital data $scfmo  from file mos
 orbital characterization : scfconv=6

 DSCF restart information will be dumped onto file mos


 Starting SCF iterations

          Overall gridpoints after grid construction =        327963

 ITERATION  ENERGY          1e-ENERGY        2e-ENERGY     RMS[dD(SAO)]   TOL
   1  -647.02394495283    -2388.8626682     990.97035348    0.000D+00 0.145D-09
                            Exc = -64.7221483794     Coul =  1076.23202328    
                            exK = -20.5395214161    
                              N = 93.999999595    
                          Ediel =-0.129396638405    
                            current damping = 0.700
 
          max. resid. norm for Fia-block=  3.036D-05 for orbital     46a         
          max. resid. fock norm         =  4.278D-05 for orbital     47a         

 ITERATION  ENERGY          1e-ENERGY        2e-ENERGY     RMS[dD(SAO)]   TOL
   2  -647.02394495667    -2388.8629286     990.97061389    0.122D-05 0.919D-10
                            Exc = -64.7221445034      Eck =  1055.69275839    
                              N = 93.999999595    
                          Ediel =-0.129397811119    
                            current damping = 0.700
 
          Norm of current diis error: 0.12241E-03
          max. resid. norm for Fia-block=  9.772D-06 for orbital     46a         
          max. resid. fock norm         =  1.435D-05 for orbital     47a         

 ENERGY & DENSITY CONVERGED !


 ITERATION  ENERGY          1e-ENERGY        2e-ENERGY     RMS[dD(SAO)]   TOL
   3  -647.02394497347    -2388.8628743     990.97055958    0.401D-06 0.851D-10
                            Exc = -64.7221483469      Eck =  1055.69270793    
                              N = 93.999999595    
                          Ediel =-0.129397845782    
                            current damping = 0.750
 
          Norm of current diis error: 0.40469E-04
          max. resid. norm for Fia-block=  2.090D-06 for orbital     46a         
          max. resid. fock norm         =  4.130D-06 for orbital    135a         

 End of SCF iterations
 COSMO: write data to file cosmo_transfer.tmp

   convergence criteria satisfied after     3 iterations


                  ------------------------------------------ 
                 |  total energy      =   -647.02394497347  |
                  ------------------------------------------ 
                 :  kinetic energy    =    641.30413366678  :
                 :  potential energy  =  -1288.32807864025  :
                 :  virial theorem    =      1.99115981510  :
                 :  wavefunction norm =      1.00000000000  :
                  .......................................... 


 orbitals $scfmo  will be written to file mos

    irrep                 43a         44a         45a         46a         47a   
 eigenvalues H         -0.26725    -0.25074    -0.23879    -0.22567    -0.20379
            eV          -7.2722     -6.8229     -6.4979     -6.1409     -5.5455
 occupation              2.0000      2.0000      2.0000      2.0000      2.0000 

    irrep                 48a         49a         50a         51a         52a   
 eigenvalues H         -0.02435    -0.01498     0.01007     0.08416     0.09368
            eV          -0.6625     -0.4076      0.2739      2.2901      2.5492
 
 ==============================================================================
                                  COSMO RESULTS
 ==============================================================================
  PARAMETER:
    nppa:      1082
    nspa:        92
    nsph:        32
    nps:        836
    npspher:    383
    disex:   10.0000    
    disex2:  4416.56    
    rsolv [A]: 1.3000
    routf:     0.8500
    phsran:    0.0    
    ampran:   0.10E-04
    cavity:  closed
    epsilon:    80.000
    refind:     1.300
    fepsi:      0.9813665
  CAVITY VOLUME/AREA [a.u.]:
    surface: V1.0, A matrix: V1.0
    area:   724.44
    volume:  1385.11
  SCREENING CHARGE:
    cosmo      :   0.979001
    correction :   0.019636
    total      :   0.998636
  ENERGIES [a.u.]:
    Total energy            =    -647.0239449734679
    Total energy + OC corr. =     -647.0256732415
    Dielectric energy       =       -0.1293978458
    Diel. energy + OC corr. =       -0.1311261138
  ELEMENT RADIUS [A]: ATOM LIST
    c  2.00: 1,2,8-13,18
    o  1.72: 3,7,19,20
    h  1.30: 4-6,14-17
 ==============================================================================
 
 
 
 ==============================================================================
                           electrostatic moments
 ==============================================================================

 reference point for electrostatic moments:    0.00000   0.00000   0.00000

 
              nuc           elec       ->  total
 ------------------------------------------------------------------------------
                          charge      
 ------------------------------------------------------------------------------
          93.000000     -94.000000      -1.000000
 
 ------------------------------------------------------------------------------
                       dipole moment  
 ------------------------------------------------------------------------------
   x     127.003032    -130.917269      -3.914237
   y       8.196026     -13.593544      -5.397518
   z     -49.308227      50.627464       1.319237
 
   | dipole moment | =     6.7967 a.u. =    17.2754 debye 
 
 ------------------------------------------------------------------------------
                     quadrupole moment
 ------------------------------------------------------------------------------
  xx    1520.385053   -1584.526815     -64.141763
  yy     814.094385    -894.303326     -80.208942
  zz     124.338978    -187.351366     -63.012388
  xy     122.580463    -143.238233     -20.657770
  xz      45.704190     -45.448841       0.255349
  yz      45.162281     -45.915669      -0.753388
 
     1/3  trace=     -69.121031
     anisotropy=      39.493093
 
 ==============================================================================
 


    ------------------------------------------------------------------------
         total  cpu-time :  10.32 seconds
         total wall-time :  10.33 seconds
    ------------------------------------------------------------------------

   ****  ridft : all done  ****


    2019-08-21 12:21:54.063 

