84
	Energy:     325.9885123
C         -3.31151        1.11930        0.25395
C         -4.00184       -0.10425        0.35786
C         -1.97476        0.78189        0.29345
C         -1.90377       -0.54295        0.42749
N         -3.11097       -1.11890        0.46819
C         -0.61546        1.31063        0.20697
C         -0.52384       -0.97935        0.47532
C          0.25918        0.28109        0.28731
C         -3.85344        2.50185        0.09161
H         -4.95995        2.50982        0.08256
H         -3.48442        2.93186       -0.86296
H         -3.49983        3.13191        0.93406
C          1.71339        0.42990        0.10115
C         -5.48099       -0.35372        0.29981
H         -3.32710       -2.13690        0.54777
O         -0.28573        2.60035       -0.00060
C         -0.13239       -2.24834        0.68258
C          1.27942       -2.75273        0.83393
N         -1.06477       -3.27632        0.88007
C         -0.38326       -4.48147        1.04769
C          1.04618       -4.29546        0.61476
C         -1.13784       -5.78158        0.87868
C         -5.94504       -1.16633        1.47719
H         -5.64246       -0.95908       -0.61731
H         -6.08784        0.56730        0.19935
C         -6.11410       -0.73836        2.78972
N         -6.27791       -2.46905        1.37419
C         -6.64521       -2.89105        2.59862
C         -6.56031       -1.84725        3.50499
H         -6.24450       -3.04756        0.50490
C         -5.88292        0.65438        3.31535
C         -7.20095        1.32123        3.71276
H         -5.42253        1.28719        2.52901
H         -5.18417        0.61540        4.17761
H         -7.87082        1.39029        2.82851
H         -7.00201        2.34807        4.08454
H         -7.72949        0.76075        4.50857
C         -6.88251       -1.93683        4.96770
H         -6.24069       -2.70924        5.44023
H         -7.94804       -2.22283        5.09472
H         -6.70117       -0.97912        5.49200
C         -7.06299       -4.27171        2.89856
O         -7.08461       -5.11456        2.01611
H         -7.34573       -4.54990        3.90795
O          2.23520        0.20013       -1.13299
C          3.55058        0.44856       -1.46876
O          2.38764        0.95527        0.97522
H          3.68640        0.28030       -2.55807
H          4.22123       -0.23647       -0.91099
H          3.81802        1.50585       -1.24862
C         -1.51245       -6.46723        2.19770
H         -0.56004       -6.51052        0.27836
H         -2.07034       -5.56120        0.31759
N         -0.33783       -6.87749        2.93030
C         -2.18908       -5.52289        3.19444
H         -2.14318       -7.35758        1.98111
C         -1.44452       -5.43289        4.31689
C         -0.31046       -6.30935        4.13737
H          0.38258       -7.52850        2.58048
C         -1.60599       -4.63451        5.56203
C         -2.34966       -3.53275        5.68920
H         -1.01585       -4.93809        6.42011
H         -2.92107       -3.10853        4.88268
H         -2.33980       -3.00553        6.63738
C          1.74695       -2.38683        2.26696
H          1.99794       -2.35345        0.08473
C          3.17993       -2.84033        2.59040
H          1.04445       -2.82663        3.01000
H          1.71752       -1.28099        2.38029
C          3.59355       -2.46728        3.99312
H          3.88467       -2.36305        1.87499
H          3.26505       -3.94103        2.49619
O          2.74577       -1.82007        4.81884
O          4.70903       -2.76165        4.39109
O          0.57430       -6.50278        4.95193
C         -3.50412       -4.84589        2.91582
H         -3.88623       -5.13251        1.91323
H         -3.39609       -3.74700        2.91294
H         -4.25401       -5.16534        3.67099
C          1.08895       -4.59042       -0.89820
H          1.78487       -4.94430        1.12850
H          0.32165       -3.98724       -1.43604
H          0.88752       -5.65931       -1.10580
H          2.08443       -4.34905       -1.31678
