78
	Energy:     254.4272535
C         -3.29474        1.10980        0.24103
C         -3.98482       -0.11502        0.35333
C         -1.96248        0.75881        0.26580
C         -1.89217       -0.56352        0.39980
N         -3.09825       -1.14076        0.45695
C         -0.61047        1.29400        0.16663
C         -0.50692       -1.00389        0.44608
C          0.26572        0.26694        0.25678
C         -3.83246        2.49759        0.08887
H         -4.93934        2.51211        0.09517
H         -3.47600        2.93055       -0.86906
H         -3.46713        3.12605        0.92784
C          1.71884        0.41887        0.06930
C         -5.46702       -0.35362        0.31027
H         -3.31465       -2.15785        0.54616
O         -0.28787        2.58459       -0.04692
C         -0.08756       -2.27088        0.63939
C          1.32082       -2.75183        0.81802
N         -0.98584       -3.34327        0.79841
C         -0.35286       -4.44845        0.92994
C          1.10967       -4.27370        0.64626
H          1.22894       -4.53872       -0.42801
H          1.78786       -4.91516        1.24116
C         -1.08783       -5.75905        0.82206
C         -5.93417       -1.16262        1.48798
H         -5.63896       -0.95601       -0.60649
H         -6.06973        0.57105        0.21226
C         -6.11806       -0.73563        2.79970
N         -6.26054       -2.46573        1.38060
C         -6.63527       -2.89223        2.60008
C         -6.56669       -1.84901        3.50885
H         -6.21682       -3.04206        0.51031
C         -5.89767        0.65717        3.32988
C         -7.22161        1.32042        3.71363
H         -5.42871        1.29208        2.55012
H         -5.20966        0.61786        4.20084
H         -7.88011        1.39291        2.82122
H         -7.02874        2.34592        4.09257
H         -7.75937        0.75563        4.50030
C         -6.90649       -1.94530        4.96714
H         -6.26576       -2.71450        5.44618
H         -7.97162       -2.23927        5.07937
H         -6.73969       -0.98729        5.49569
C         -7.04564       -4.27656        2.89230
O         -7.05253       -5.11852        2.00871
H         -7.33746       -4.56105        3.89724
O          2.22449        0.29180       -1.18504
C          3.54765        0.49403       -1.51693
O          2.42006        0.79811        0.99565
H          3.66955        0.38081       -2.61483
H          4.18688       -0.25514       -1.00539
H          3.86604        1.52089       -1.23401
C         -1.45369       -6.43598        2.15591
H         -0.48699       -6.46901        0.21372
H         -2.02996       -5.57515        0.26088
N         -0.29085       -6.85271        2.90565
C         -2.18891       -5.54217        3.12899
H         -2.07417       -7.32823        1.92338
C         -1.52924       -5.50272        4.29376
C         -0.34487       -6.32936        4.13599
H         -3.12521       -5.04225        2.92124
H          0.44127       -7.49376        2.56579
C         -1.91065       -4.79174        5.53853
C         -2.98736       -4.00591        5.64488
H         -1.28158       -4.92250        6.41505
H         -3.65551       -3.82897        4.81018
H         -3.20652       -3.52200        6.59177
C          1.74923       -2.37412        2.25803
H          2.04161       -2.37238        0.06119
C          3.17608       -2.82121        2.61677
H          1.03203       -2.82220        2.98345
H          1.70368       -1.27113        2.37395
C          3.55569       -2.45733        4.03036
H          3.89471       -2.33962        1.91954
H          3.27344       -3.92049        2.52362
O          2.77428       -1.87919        4.77109
O          4.77690       -2.78722        4.49035
O          0.49265       -6.54907        5.00099
