74
	Energy:     204.5046821
C         -3.39575        1.48784       -0.13983
C         -2.25065        0.71728       -0.34783
C         -4.44197        0.59098       -0.00274
C         -3.89359       -0.67388       -0.12530
N         -2.55833       -0.60107       -0.33244
C         -0.87826        1.26713       -0.49902
C         -5.90211        0.88537        0.22754
H         -6.13468        1.96392        0.27498
H         -6.22983        0.42126        1.18068
H         -6.49650        0.45986       -0.60793
C         -3.49550        2.99398       -0.05021
C         -4.68686       -1.92038       -0.01501
C         -4.19327       -3.16817       -0.05357
C         -4.97501       -4.41119        0.11171
C         -4.07702       -5.40455        0.01110
C         -2.75136       -4.77709       -0.15414
N         -2.82755       -3.49686       -0.20111
C         -6.44894       -4.46695        0.35728
C          0.25616        0.54541       -0.63421
C          1.53730        1.09245       -0.71640
C          2.41044        0.02819       -0.81869
C          1.63138       -1.12808       -0.76869
N          0.31641       -0.80788       -0.66296
C         -1.49926       -5.55646       -0.18356
C         -0.25650       -5.06967       -0.32730
H         -1.62220       -6.61860       -0.04594
C          0.97813       -5.87260       -0.27901
C          1.97494       -4.99499       -0.48443
C          1.35510       -3.64762       -0.63017
N          0.07516       -3.71014       -0.52378
C          2.12209       -2.38330       -0.77838
H         -0.79331        2.34699       -0.47095
H          3.18776       -2.50011       -0.84888
C          3.90980        0.15980       -0.93474
H          4.43888       -0.80580       -1.02188
H          4.31132        0.68353       -0.04361
H          4.15157        0.75096       -1.84343
C          1.01674       -7.35322       -0.02030
C          1.93158        2.54847       -0.61519
H         -5.75247       -1.80206        0.13255
C         -4.28245       -6.89934        0.00965
H         -5.33437       -7.21691       -0.02391
H         -3.77294       -7.35528        0.88327
H         -3.83589       -7.31028       -0.92046
C          3.44832       -5.30611       -0.53901
H          4.06891       -4.42488       -0.77157
H          3.63888       -6.05442       -1.33707
H          3.79025       -5.68460        0.44515
C          2.10149       -8.10784        0.19008
H          0.07803       -7.88836        0.03385
H          3.10940       -7.73612        0.19774
H          1.97490       -9.16825        0.38697
C         -7.09167       -5.47313        0.96384
H         -7.05059       -3.60658        0.08941
H         -6.59426       -6.34562        1.35742
H         -8.16174       -5.40641        1.12789
C         -3.41519        3.64928       -1.43571
H         -2.72816        3.39092        0.64886
H         -4.47493        3.27240        0.37980
C         -3.70136        5.13062       -1.40021
H         -4.18997        3.18447       -2.08387
H         -2.41876        3.47479       -1.89214
O         -3.92065        5.70938       -0.34481
O         -3.75432        5.81629       -2.56121
H         -3.97912        6.75768       -2.58106
C          1.73955        3.32763       -1.92084
H          3.00558        2.62932       -0.34392
H          1.36168        3.00314        0.22325
C          2.06633        4.79391       -1.75685
H          0.69470        3.23661       -2.28097
H          2.42184        2.89700       -2.68742
O          2.38168        5.25387       -0.66739
O          2.00466        5.60946       -2.82949
H          2.21136        6.55252       -2.75412
