 operating system is UNIX !

 ridft (yamuna) : TURBOMOLE V7.2 ( 21454 ) 4 Oct 2017 at 12:48:15
 Copyright (C) 2017 TURBOMOLE GmbH, Karlsruhe


    2019-08-21 12:27:59.068 



                                  r i d f t

                        DFT program with RI approximation 
                                for coulomb part 




                                                 
                                 References:     
                                                 
          TURBOMOLE:                             
              R. Ahlrichs, M. Baer, M. Haeser, H. Horn, and
              C. Koelmel
              Electronic structure calculations on workstation
              computers: the program system TURBOMOLE
              Chem. Phys. Lett. 162: 165 (1989)
          Density Functional:                              
              O. Treutler and R. Ahlrichs                      
              Efficient Molecular Numerical Integration Schemes
              J. Chem. Phys. 102: 346 (1995)                   
          Parallel Version:                                
              Performance of parallel TURBOMOLE for Density    
              Functional Calculations                          
              M. v. Arnim and R. Ahlrichs                      
              J. Comp. Chem. 19: 1746 (1998)                   
          RI-J Method:                                     
              Auxiliary Basis Sets to approximate Coulomb      
              Potentials                                       
              Chem. Phys. Lett. 240: 283 (1995)                
              K. Eichkorn, O. Treutler, H. Oehm, M. Haeser     
              and R. Ahlrichs                                  
              Chem. Phys. Lett. 242: 652 (1995)                
                                                           
              Auxiliary Basis Sets for Main Row Atoms and their
              Use to approximate Coulomb Potentials            
              K. Eichkorn, F. Weigend, O. Treutler and         
              R. Ahlrichs                                      
              Theo. Chem. Acc. 97: 119 (1997)                   
                                                           
              Accurate Coulomb-fitting basis sets for H to Rn 
              F. Weigend                                        
              Phys. Chem. Chem. Phys. 8: 1057 (2006)            
                                                           
          Multipole accelerated RI-J (MARI-J):             
              Fast evaluation of the Coulomb potential for     
              electron densities using multipole accelerated   
              resolution of identity approximation             
              M. Sierka, A. Hogekamp and R. Ahlrichs           
              J. Chem. Phys. 118: 9136 (2003)                  
          RI-JK Method:                                     
              A fully direct RI-HF algorithm: Implementation,
              optimised auxiliary basis sets, demonstration of
              accuracy and efficiency                         
              F. Weigend                                      
              Phys. Chem. Chem. Phys. 4: 4285 (2002)           
          Two-component HF and DFT with spin-orbit coupling:  
              Self-consistent treatment of spin-orbit         
              interactions with efficient Hartree-Fock and    
              density functional methods                      
              M. K. Armbruster, F. Weigend, C. van Wüllen and 
              W. Klopper                                      
              Phys. Chem. Chem. Phys. 10: 1748 (2008)         
          Relativistic all-electron 2c calculations           
              An efficient implementation of two-component    
              relativistic exact-decoupling methods for large 
              molecules                                       
              D. Peng, N. Middendorf, F. Weigend, M. Reiher   
              J. Chem. Phys. 138, 184105 (2013)               
                                         




              +--------------------------------------------------+
              |      general information about current run       |
              +--------------------------------------------------+

 

 DENSITY CONVERGENCE CHECK SWITCHED ON !
 SCF CONVERGENCE IF RMS(delta[D]) <     0.1000000000E-06

 PBE0 hybrid functional
 exchange:    3/4 (LDA+PBE) + 1/4 HF
 correlation: LDA (PW) + PBE
 A Hybrid-DFT calculation using the RI-J approximation will be carried out.
 Allocatable memory for RI due to $ricore (MB):                   500


              +--------------------------------------------------+
              | Atomic coordinate, charge and isotop information |
              +--------------------------------------------------+

                    atomic coordinates            atom    charge  isotop
         -3.93032800    0.72276355    0.01020452    c      6.000     0
         -1.77774096   -0.77526015    0.25552877    o      8.000     0
         -4.49390102    0.81129722   -2.00715371    h      1.000     0
         -3.51868896    2.65697384    0.70632294    h      1.000     0
         -5.49165753   -0.10765770    1.13617894    h      1.000     0
 
       center of nuclear mass  :   -2.87623578   -0.01079697    0.13033611
       center of nuclear charge:   -3.01812607    0.08794785    0.11416503

              +--------------------------------------------------+
              |               basis set information              |
              +--------------------------------------------------+

              we will work with the 1s 3p 5d 7f 9g ... basis set
              ...i.e. with spherical basis functions...

   type   atoms  prim   cont   basis
   ---------------------------------------------------------------------------
    c        1     24     14   def2-SVP   [3s2p1d|7s4p1d]
    o        1     24     14   def2-SVP   [3s2p1d|7s4p1d]
    h        3      7      5   def2-SVP   [2s1p|4s1p]
   ---------------------------------------------------------------------------
   total:    5     69     43
   ---------------------------------------------------------------------------

   total number of primitive shells          :   29
   total number of contracted shells         :   21
   total number of cartesian basis functions :   45
   total number of SCF-basis functions       :   43


 integral neglect threshold       :  0.74E-09
 integral storage threshold THIZE :  0.10E-04
 integral storage threshold THIME :         5

 RI-J AUXILIARY BASIS SET information:

              we will work with the 1s 3p 5d 7f 9g ... basis set
              ...i.e. with spherical basis functions...

   type   atoms  prim   cont   basis
   ---------------------------------------------------------------------------
    c        1     70     49   def2-SVP   [6s4p3d1f1g|12s5p4d2f1g]
    o        1     70     49   def2-SVP   [6s4p3d1f1g|12s5p4d2f1g]
    h        3     16     11   def2-SVP   [3s1p1d|5s2p1d]
   ---------------------------------------------------------------------------
   total:    5    188    131
   ---------------------------------------------------------------------------

   total number of primitive shells          :   56
   total number of contracted shells         :   45
   total number of cartesian basis functions :  158
   total number of SCF-basis functions       :  131


 symmetry group of the molecule :   c1 

 the group has the following generators :
   c1(z)

    1 symmetry operations found

 there are 1 real representations :   a   

 maximum number of shells which are related by symmetry :  1

 ==============================================================================
                      COSMO switched on
 ==============================================================================
 COSMO stati: segments per atom: H   32 other atoms   92
 COSMO statistics: nps    237 npspher:    153
 COSMO surface:
   number of segments:  237
   area (bohr**2):      231.593202
   volume (bohr**3):    310.664419
 COSMO: check number of disjunct cavities:

       ... OK contiguous cavity found

    mo occupation :
   irrep   mo's   occupied
    a       43        9
 
 number of basis functions   :                     43
 number of occupied orbitals :                      9
 
  
           ------------------
           density functional
           ------------------
 PBE0 hybrid functional
 exchange:    3/4 (LDA+PBE) + 1/4 HF
 correlation: LDA (PW) + PBE

 spherical integration : Lebedev's spherical grid
 spherical gridsize    :                     5
    i.e. gridpoints    :                   590
 value for diffuse not defined
 radial integration    : Chebyshev 2nd kind (scaling 3)
 radial gridsize       :                     8
 integration cells     :                     5
 partition function    : becke
 partition sharpness   :                     3
  

 biggest AO integral is expected to be     4.776656448
  
           ------------------------
               RI-J - INFORMATION
           ------------------------
 Contributions to RI integral batches: 
  neglected integral batches:                     0
  direct contribution:                            0
  memory contribution:                   231
 Memory core needed for (P|Q) and Cholesky      1 MByte
 Memory core minimum needed except of (P|Q)     1 MByte
 Total minimum memory core needed (sum)         1 MByte
  
 ****************************************
 Memory allocated for RI-J     2 MByte
 ****************************************
                                            

          ------------------------
          nuclear repulsion energy  :   33.8792763428    
          ------------------------


         -----------------
         -S,T+V- integrals
         -----------------

 1e-integrals will be neglected if expon. factor < 0.742658E-10
 
   Difference densities algorithm switched on.
   The maximal number of linear combinations of
   difference densities is                    20 .

 DIIS switched on: error vector is FDS-SDF
 Max. Iterations for DIIS is     :   4
 DIIS matrix (see manual) 
    Scaling factor of diagonals  :  1.200
    threshold for scaling factor :  0.000

 scf convergence criterion : increment of total energy < .1000000D-05
                  and increment of one-electron energy < .1000000D-02

  MOs are in ASCII format !


 automatic virtual orbital shift switched on 
      shift if e(lumo)-e(homo) < 0.10000000    


 reading orbital data $scfmo  from file mos
 orbital characterization : expanded
 mo provided and orthogonalized by Cholesky decomposition

 DSCF restart information will be dumped onto file mos


 Starting SCF iterations

          Overall gridpoints after grid construction =         78154

 ITERATION  ENERGY          1e-ENERGY        2e-ENERGY     RMS[dD(SAO)]   TOL
   1  -114.43562651027    -230.84614414     82.531241284    0.000D+00 0.741D-09
                            Exc = -11.7326444436     Coul =  97.9945936634    
                            exK = -3.73070793602    
                              N = 17.999999980    
                          Ediel =-0.168086169120    
                            current damping = 0.700
 
          max. resid. norm for Fia-block=  3.947D-01 for orbital      7a         
          max. resid. fock norm         =  1.254D+00 for orbital     39a         

 ITERATION  ENERGY          1e-ENERGY        2e-ENERGY     RMS[dD(SAO)]   TOL
   2  -114.89098052183    -229.42742273     80.657165869    0.196D-01 0.482D-09
                            Exc = -11.5374234506      Eck =  92.1945893196    
                              N = 17.999999996    
                          Ediel =-0.150543107394    
                            current damping = 0.650
 
          Norm of current diis error: 0.61382    
          max. resid. norm for Fia-block=  1.034D-01 for orbital      1a         
          max. resid. fock norm         =  1.621D-01 for orbital     27a         

 ITERATION  ENERGY          1e-ENERGY        2e-ENERGY     RMS[dD(SAO)]   TOL
   3  -114.94546892340    -229.89385193     81.069106662    0.860D-02 0.396D-09
                            Exc = -11.5954882767      Eck =  92.6645949388    
                              N = 17.999999994    
                          Ediel =-0.143035624897    
                            current damping = 0.600
 
          Norm of current diis error: 0.28683    
          max. resid. norm for Fia-block=  4.238D-02 for orbital      7a         
          max. resid. fock norm         =  6.662D-02 for orbital     38a         

 ITERATION  ENERGY          1e-ENERGY        2e-ENERGY     RMS[dD(SAO)]   TOL
   4  -114.96136363327    -229.61313550     80.772495521    0.671D-02 0.328D-09
                            Exc = -11.5830540590      Eck =  92.3555495804    
                              N = 17.999999995    
                          Ediel =-0.136373211679    
                            current damping = 0.650
 
          Norm of current diis error: 0.10925    
          max. resid. norm for Fia-block=  1.798D-02 for orbital      3a         
          max. resid. fock norm         =  3.468D-02 for orbital     40a         

 ITERATION  ENERGY          1e-ENERGY        2e-ENERGY     RMS[dD(SAO)]   TOL
   5  -114.96405712405    -229.68676674     80.843433272    0.349D-02 0.293D-09
                            Exc = -11.5954542206      Eck =  92.4388874922    
                              N = 17.999999994    
                          Ediel =-0.134032935591    
                            current damping = 0.700
 
          Norm of current diis error: 0.45327E-01
          max. resid. norm for Fia-block=  6.542D-03 for orbital      4a         
          max. resid. fock norm         =  1.331D-02 for orbital     40a         
          mo-orthogonalization: Cholesky decomposition

 ITERATION  ENERGY          1e-ENERGY        2e-ENERGY     RMS[dD(SAO)]   TOL
   6  -114.96460609779    -229.64279988     80.798917443    0.202D-02 0.270D-09
                            Exc = -11.5942663225      Eck =  92.3931837653    
                              N = 17.999999995    
                          Ediel =-0.132612527697    
                            current damping = 0.750
 
          Norm of current diis error: 0.18956E-01
          max. resid. norm for Fia-block=  3.094D-03 for orbital      3a         
          max. resid. fock norm         =  6.101D-03 for orbital     40a         

 ITERATION  ENERGY          1e-ENERGY        2e-ENERGY     RMS[dD(SAO)]   TOL
   7  -114.96471162800    -229.64566391     80.801675940    0.927D-03 0.256D-09
                            Exc = -11.5956487044      Eck =  92.3973246443    
                              N = 17.999999995    
                          Ediel =-0.132065043635    
                            current damping = 0.800
 
          Norm of current diis error: 0.83852E-02
          max. resid. norm for Fia-block=  1.289D-03 for orbital      9a         
          max. resid. fock norm         =  2.518D-03 for orbital     40a         

 ITERATION  ENERGY          1e-ENERGY        2e-ENERGY     RMS[dD(SAO)]   TOL
   8  -114.96473466652    -229.63893358     80.794922573    0.477D-03 0.246D-09
                            Exc = -11.5955441314      Eck =  92.3904667042    
                              N = 17.999999995    
                          Ediel =-0.131771214391    
                            current damping = 0.850
 
          Norm of current diis error: 0.37224E-02
          max. resid. norm for Fia-block=  6.327D-04 for orbital      3a         
          max. resid. fock norm         =  1.271D-03 for orbital     40a         

 ITERATION  ENERGY          1e-ENERGY        2e-ENERGY     RMS[dD(SAO)]   TOL
   9  -114.96473942497    -229.63928541     80.795269647    0.213D-03 0.239D-09
                            Exc = -11.5958054937      Eck =  92.3910751406    
                              N = 17.999999995    
                          Ediel =-0.131653885046    
                            current damping = 0.900
 
          Norm of current diis error: 0.17841E-02
          max. resid. norm for Fia-block=  3.101D-04 for orbital      9a         
          max. resid. fock norm         =  5.269D-04 for orbital     40a         

 ITERATION  ENERGY          1e-ENERGY        2e-ENERGY     RMS[dD(SAO)]   TOL
  10  -114.96474058904    -229.63755423     80.793537293    0.112D-03 0.233D-09
                            Exc = -11.5957519667      Eck =  92.3892892602    
                              N = 17.999999995    
                          Ediel =-0.131587216448    
                            current damping = 0.950
 
          Norm of current diis error: 0.83251E-03
          max. resid. norm for Fia-block=  1.518D-04 for orbital      9a         
          max. resid. fock norm         =  2.946D-04 for orbital     40a         
          mo-orthogonalization: Cholesky decomposition

 ITERATION  ENERGY          1e-ENERGY        2e-ENERGY     RMS[dD(SAO)]   TOL
  11  -114.96474084717    -229.63761767     80.793600483    0.504D-04 0.228D-09
                            Exc = -11.5958084306      Eck =  92.3894089138    
                              N = 17.999999995    
                          Ediel =-0.131560508430    
                            current damping = 1.000
 
          Norm of current diis error: 0.42041E-03
          max. resid. norm for Fia-block=  7.813D-05 for orbital      9a         
          max. resid. fock norm         =  1.276D-04 for orbital     40a         

 ITERATION  ENERGY          1e-ENERGY        2e-ENERGY     RMS[dD(SAO)]   TOL
  12  -114.96474091452    -229.63726958     80.793252326    0.270D-04 0.223D-09
                            Exc = -11.5958002130      Eck =  92.3890525393    
                              N = 17.999999995    
                          Ediel =-0.131544947526    
                            current damping = 1.050
 
          Norm of current diis error: 0.20693E-03
          max. resid. norm for Fia-block=  4.017D-05 for orbital      9a         
          max. resid. fock norm         =  7.377D-05 for orbital     40a         

 ENERGY & DENSITY CONVERGED !


 ITERATION  ENERGY          1e-ENERGY        2e-ENERGY     RMS[dD(SAO)]   TOL
  13  -114.96474093168    -229.63724327     80.793226000    0.129D-04 0.219D-09
                            Exc = -11.5958101348      Eck =  92.3890361350    
                              N = 17.999999995    
                          Ediel =-0.131538127094    
                            current damping = 0.900
 
          Norm of current diis error: 0.10925E-03
          max. resid. norm for Fia-block=  2.137D-05 for orbital      9a         
          max. resid. fock norm         =  3.417D-05 for orbital     40a         

 End of SCF iterations
 COSMO: write data to file cosmo_transfer.tmp

   convergence criteria satisfied after    13 iterations


                  ------------------------------------------ 
                 |  total energy      =   -114.96474093168  |
                  ------------------------------------------ 
                 :  kinetic energy    =    114.02999427360  :
                 :  potential energy  =   -228.99473520528  :
                 :  virial theorem    =      1.99186927531  :
                 :  wavefunction norm =      1.00000000000  :
                  .......................................... 


 <geterg> : there is no data group $energy 


 <skperg> : $end is missing 


 orbitals $scfmo  will be written to file mos

    irrep                  5a          6a          7a          8a          9a   
 eigenvalues H         -0.38296    -0.38295    -0.28943    -0.13759    -0.13756
            eV         -10.4209    -10.4206     -7.8758     -3.7439     -3.7431
 occupation              2.0000      2.0000      2.0000      2.0000      2.0000 

    irrep                 10a         11a         12a         13a         14a   
 eigenvalues H          0.11007     0.17887     0.17890     0.24123     0.52211
            eV           2.9953      4.8674      4.8681      6.5642     14.2074
 
 ==============================================================================
                                  COSMO RESULTS
 ==============================================================================
  PARAMETER:
    nppa:      1082
    nspa:        92
    nsph:        32
    nps:        237
    npspher:    153
    disex:   10.0000    
    disex2:  4012.79    
    rsolv [A]: 1.3000
    routf:     0.8500
    phsran:    0.0    
    ampran:   0.10E-04
    cavity:  closed
    epsilon:    80.000
    refind:     1.300
    fepsi:      0.9813665
  CAVITY VOLUME/AREA [a.u.]:
    surface: V1.0, A matrix: V1.0
    area:   231.59
    volume:   310.66
  SCREENING CHARGE:
    cosmo      :   0.979299
    correction :   0.019402
    total      :   0.998701
  ENERGIES [a.u.]:
    Total energy            =    -114.9647409316796
    Total energy + OC corr. =     -114.9681352123
    Dielectric energy       =       -0.1315381271
    Diel. energy + OC corr. =       -0.1349324077
  ELEMENT RADIUS [A]: ATOM LIST
    c  2.00: 1
    o  1.72: 2
    h  1.30: 3-5
 ==============================================================================
 
 
 
 ==============================================================================
                           electrostatic moments
 ==============================================================================

 reference point for electrostatic moments:    0.00000   0.00000   0.00000

 
              nuc           elec       ->  total
 ------------------------------------------------------------------------------
                          charge      
 ------------------------------------------------------------------------------
          17.000000     -18.000000      -1.000000
 
 ------------------------------------------------------------------------------
                       dipole moment  
 ------------------------------------------------------------------------------
   x     -51.308143      53.257884       1.949741
   y       1.495114      -0.839548       0.655565
   z       1.940805      -2.176713      -0.235908
 
   | dipole moment | =     2.0705 a.u. =     5.2626 debye 
 
 ------------------------------------------------------------------------------
                     quadrupole moment
 ------------------------------------------------------------------------------
  xx     180.702393    -196.724317     -16.021924
  yy      15.671853     -27.863371     -12.191518
  zz       6.341445     -17.739908     -11.398463
  xy     -18.422228      17.763252      -0.658976
  xz      -3.579641       3.937604       0.357963
  yz      -1.414593       1.640121       0.225528
 
     1/3  trace=     -13.203968
     anisotropy=       4.492039
 
 ==============================================================================
 


    ------------------------------------------------------------------------
         total  cpu-time :   1.65 seconds
         total wall-time :   1.90 seconds
    ------------------------------------------------------------------------

   ****  ridft : all done  ****


    2019-08-21 12:28:00.959 

