 operating system is UNIX !

 ridft (yamuna) : TURBOMOLE V7.2 ( 21454 ) 4 Oct 2017 at 12:48:15
 Copyright (C) 2017 TURBOMOLE GmbH, Karlsruhe


    2019-08-15 13:14:24.936 



                                  r i d f t

                        DFT program with RI approximation 
                                for coulomb part 




                                                 
                                 References:     
                                                 
          TURBOMOLE:                             
              R. Ahlrichs, M. Baer, M. Haeser, H. Horn, and
              C. Koelmel
              Electronic structure calculations on workstation
              computers: the program system TURBOMOLE
              Chem. Phys. Lett. 162: 165 (1989)
          Density Functional:                              
              O. Treutler and R. Ahlrichs                      
              Efficient Molecular Numerical Integration Schemes
              J. Chem. Phys. 102: 346 (1995)                   
          Parallel Version:                                
              Performance of parallel TURBOMOLE for Density    
              Functional Calculations                          
              M. v. Arnim and R. Ahlrichs                      
              J. Comp. Chem. 19: 1746 (1998)                   
          RI-J Method:                                     
              Auxiliary Basis Sets to approximate Coulomb      
              Potentials                                       
              Chem. Phys. Lett. 240: 283 (1995)                
              K. Eichkorn, O. Treutler, H. Oehm, M. Haeser     
              and R. Ahlrichs                                  
              Chem. Phys. Lett. 242: 652 (1995)                
                                                           
              Auxiliary Basis Sets for Main Row Atoms and their
              Use to approximate Coulomb Potentials            
              K. Eichkorn, F. Weigend, O. Treutler and         
              R. Ahlrichs                                      
              Theo. Chem. Acc. 97: 119 (1997)                   
                                                           
              Accurate Coulomb-fitting basis sets for H to Rn 
              F. Weigend                                        
              Phys. Chem. Chem. Phys. 8: 1057 (2006)            
                                                           
          Multipole accelerated RI-J (MARI-J):             
              Fast evaluation of the Coulomb potential for     
              electron densities using multipole accelerated   
              resolution of identity approximation             
              M. Sierka, A. Hogekamp and R. Ahlrichs           
              J. Chem. Phys. 118: 9136 (2003)                  
          RI-JK Method:                                     
              A fully direct RI-HF algorithm: Implementation,
              optimised auxiliary basis sets, demonstration of
              accuracy and efficiency                         
              F. Weigend                                      
              Phys. Chem. Chem. Phys. 4: 4285 (2002)           
          Two-component HF and DFT with spin-orbit coupling:  
              Self-consistent treatment of spin-orbit         
              interactions with efficient Hartree-Fock and    
              density functional methods                      
              M. K. Armbruster, F. Weigend, C. van Wüllen and 
              W. Klopper                                      
              Phys. Chem. Chem. Phys. 10: 1748 (2008)         
          Relativistic all-electron 2c calculations           
              An efficient implementation of two-component    
              relativistic exact-decoupling methods for large 
              molecules                                       
              D. Peng, N. Middendorf, F. Weigend, M. Reiher   
              J. Chem. Phys. 138, 184105 (2013)               
                                         




              +--------------------------------------------------+
              |      general information about current run       |
              +--------------------------------------------------+

 

 UHF modus switched on !

 DENSITY CONVERGENCE CHECK SWITCHED ON !
 SCF CONVERGENCE IF RMS(delta[D]) <     0.1000000000E-06

 PBE0 hybrid functional
 exchange:    3/4 (LDA+PBE) + 1/4 HF
 correlation: LDA (PW) + PBE
 A Hybrid-DFT calculation using the RI-J approximation will be carried out.
 Allocatable memory for RI due to $ricore (MB):                   500


              +--------------------------------------------------+
              | Atomic coordinate, charge and isotop information |
              +--------------------------------------------------+

                    atomic coordinates            atom    charge  isotop
        -10.55206065  -10.44835248   -0.53273269    c      6.000     0
         -8.07062347  -11.13441755   -1.56119724    n      7.000     0
         -7.89170420  -10.46192071   -3.41560440    h      1.000     0
         -7.87539586  -13.10262401   -1.59269898    h      1.000     0
        -12.51386094  -11.75776262   -2.17188114    c      6.000     0
        -13.79707947  -13.83619680   -1.32216579    n      7.000     0
        -14.95506585  -15.51678694   -3.16289132    c      6.000     0
        -13.58425851  -14.43471086    0.52279273    h      1.000     0
        -12.69087159  -11.13167745   -4.39489827    o      8.000     0
        -12.87090579  -17.09784521   -4.15295664    c      6.000     0
        -15.90408631  -18.30628728   -2.26912645    c      6.000     0
        -13.62288451  -19.29519986   -3.30033110    n      7.000     0
        -16.23730172  -14.59632024   -4.54775822    h      1.000     0
        -11.25832690  -16.65523355   -5.74178168    o      8.000     0
        -13.52395735  -21.64789000   -4.69683871    c      6.000     0
        -16.32131895  -22.61435263   -4.68406417    c      6.000     0
        -18.32554358  -19.77590839   -4.28718388    s     16.000     0
        -16.07140266  -18.59424374   -0.19348906    h      1.000     0
        -16.95980071  -24.04281551   -7.14692534    c      6.000     0
        -15.71399876  -25.72306550   -7.35793216    h      1.000     0
        -16.69966101  -22.81349197   -8.82891388    h      1.000     0
        -18.95540820  -24.68815699   -7.14855050    h      1.000     0
        -16.91117806  -24.36601537   -2.42945081    c      6.000     0
        -16.52777153  -23.41567210   -0.60125416    h      1.000     0
        -15.76948112  -26.12535040   -2.52531662    h      1.000     0
        -18.93766367  -24.92514754   -2.46665952    h      1.000     0
        -12.69019128  -21.18776058   -7.19435746    o      8.000     0
        -11.88573487  -23.36138027   -3.48248180    o      8.000     0
        -10.81388221  -21.12050523   -7.16612495    h      1.000     0
        -11.64226255  -24.81520328   -4.64349175    h      1.000     0
        -10.67198267   -7.56814529   -0.39064419    c      6.000     0
        -12.61579277   -6.12138986   -1.50613063    c      6.000     0
         -8.68589940   -6.29456437    0.84979094    c      6.000     0
         -8.61339061   -3.65835862    0.93409163    c      6.000     0
         -7.16145733   -7.35528654    1.71143047    h      1.000     0
        -10.53340905   -2.24881189   -0.19125918    c      6.000     0
        -12.53742582   -3.47522526   -1.39629974    c      6.000     0
        -14.18110961   -7.01260360   -2.46616819    h      1.000     0
        -14.02401668   -2.36994334   -2.26309822    h      1.000     0
         -7.05378074   -2.70945153    1.85922595    h      1.000     0
        -10.46443405   -0.20444947   -0.13216745    h      1.000     0
        -10.65132796  -11.20120047    1.42727235    h      1.000     0
 
       center of nuclear mass  :  -13.17581977  -14.97811974   -2.97285396
       center of nuclear charge:  -13.17483671  -15.00910458   -2.95450209

              +--------------------------------------------------+
              |               basis set information              |
              +--------------------------------------------------+

              we will work with the 1s 3p 5d 7f 9g ... basis set
              ...i.e. with spherical basis functions...

   type   atoms  prim   cont   basis
   ---------------------------------------------------------------------------
    c       15     24     14   def2-SVP   [3s2p1d|7s4p1d]
    n        3     24     14   def2-SVP   [3s2p1d|7s4p1d]
    h       19      7      5   def2-SVP   [2s1p|4s1p]
    o        4     24     14   def2-SVP   [3s2p1d|7s4p1d]
    s        1     36     18   def2-SVP   [4s3p1d|10s7p1d]
   ---------------------------------------------------------------------------
   total:   42    697    421
   ---------------------------------------------------------------------------

   total number of primitive shells          :   59
   total number of contracted shells         :  197
   total number of cartesian basis functions :  444
   total number of SCF-basis functions       :  421


 integral neglect threshold       :  0.75E-10
 integral storage threshold THIZE :  0.10E-04
 integral storage threshold THIME :         5

 RI-J AUXILIARY BASIS SET information:

              we will work with the 1s 3p 5d 7f 9g ... basis set
              ...i.e. with spherical basis functions...

   type   atoms  prim   cont   basis
   ---------------------------------------------------------------------------
    c       15     70     49   def2-SVP   [6s4p3d1f1g|12s5p4d2f1g]
    n        3     70     49   def2-SVP   [6s4p3d1f1g|12s5p4d2f1g]
    h       19     16     11   def2-SVP   [3s1p1d|5s2p1d]
    o        4     70     49   def2-SVP   [6s4p3d1f1g|12s5p4d2f1g]
    s        1     77     51   def2-SVP   [8s4p3d1f1g|14s5p5d2f1g]
   ---------------------------------------------------------------------------
   total:   42   1921   1338
   ---------------------------------------------------------------------------

   total number of primitive shells          :  107
   total number of contracted shells         :  442
   total number of cartesian basis functions : 1633
   total number of SCF-basis functions       : 1338


 symmetry group of the molecule :   c1 

 the group has the following generators :
   c1(z)

    1 symmetry operations found

 there are 1 real representations :   a   

 maximum number of shells which are related by symmetry :  1

 ==============================================================================
                      COSMO switched on
 ==============================================================================
 COSMO stati: segments per atom: H   32 other atoms   92
 COSMO statistics: nps   1378 npspher:    557
 COSMO surface:
   number of segments: 1378
   area (bohr**2):     1187.813448
   volume (bohr**3):   2589.296111
 COSMO: check number of disjunct cavities:

       ... OK contiguous cavity found

    mo occupation :
   irrep   mo's   occupied
    a      421       90
 
 number of basis functions   :                    421
 number of occupied orbitals :                     90
 
  
           ------------------
           density functional
           ------------------
 PBE0 hybrid functional
 exchange:    3/4 (LDA+PBE) + 1/4 HF
 correlation: LDA (PW) + PBE

 spherical integration : Lebedev's spherical grid
 spherical gridsize    :                     5
    i.e. gridpoints    :                   590
 value for diffuse not defined
 radial integration    : Chebyshev 2nd kind (scaling 3)
 radial gridsize       :                     8
 integration cells     :                    42
 partition function    : becke
 partition sharpness   :                     3
  

 biggest AO integral is expected to be     9.765798878
  
           ------------------------
               RI-J - INFORMATION
           ------------------------
 Contributions to RI integral batches: 
  neglected integral batches:                  7733
  direct contribution:                         2677
  memory contribution:                  9093
 Memory core needed for (P|Q) and Cholesky     14 MByte
 Memory core minimum needed except of (P|Q)     1 MByte
 Total minimum memory core needed (sum)        15 MByte
  
 ****************************************
 Memory allocated for RI-J   453 MByte
 ****************************************
                                            

          ------------------------
          nuclear repulsion energy  :   2123.47652018    
          ------------------------


         -----------------
         -S,T+V- integrals
         -----------------

 1e-integrals will be neglected if expon. factor < 0.752694E-11
 
   Difference densities algorithm switched on.
   The maximal number of linear combinations of
   difference densities is                    20 .

 DIIS switched on: error vector is FDS-SDF
 Max. Iterations for DIIS is     :   4
 DIIS matrix (see manual) 
    Scaling factor of diagonals  :  1.200
    threshold for scaling factor :  0.000

 scf convergence criterion : increment of total energy < .1000000D-05
                  and increment of one-electron energy < .1000000D-02

  MOs are in ASCII format !


 closed shell shift switched on 
 all occupied orbitals are shifted by    0.05000


 reading orbital data $uhfmo_alpha  from file alpha
 orbital characterization : expanded

 reading orbital data $uhfmo_beta  from file beta
 orbital characterization : expanded
 mo provided and orthogonalized by Cholesky decomposition
 mo provided and orthogonalized by Cholesky decomposition

 DSCF restart information will be dumped onto file alpha


 Starting SCF iterations

          Overall gridpoints after grid construction =        653873

 ITERATION  ENERGY          1e-ENERGY        2e-ENERGY     RMS[dD(SAO)]   TOL
   1  -1440.3621540549    -6194.2381828     2630.3995085    0.000D+00 0.751D-10
                            Exc = -126.868377120     Coul =  2797.60880275    
                            exK = -40.3409170804    
                         Ntotal = 178.99999334      Nspin =0.99999993302    
                             Na = 89.999996638         Nb = 88.999996705    
                          Ediel =-0.231607618198    
                            current damping = 0.700
 
          max. resid. norm for Fia-block=  8.930D-01 for orbital      1a    beta 
          max. resid. fock norm         =  1.628D+00 for orbital      1a    alpha

 ITERATION  ENERGY          1e-ENERGY        2e-ENERGY     RMS[dD(SAO)]   TOL
   2  -1443.3782491000    -6208.9101327     2642.0553634    0.709D-02 0.481D-10
                            Exc = -126.953761476      Eck =  2769.00912490    
                         Ntotal = 178.99999600      Nspin =0.99999992580    
                             Na = 89.999997964         Nb = 88.999998038    
                          Ediel =-0.176295993866    
                            current damping = 0.650
 
          Norm of current diis error:  1.7292    
          max. resid. norm for Fia-block=  3.793D-01 for orbital      1a    beta 
          max. resid. fock norm         =  6.708D-01 for orbital      1a    alpha

 ITERATION  ENERGY          1e-ENERGY        2e-ENERGY     RMS[dD(SAO)]   TOL
   3  -1443.9630599002    -6215.5518329     2648.1122529    0.406D-02 0.374D-10
                            Exc = -127.421126936      Eck =  2775.53337980    
                         Ntotal = 178.99999538      Nspin =0.99999988321    
                             Na = 89.999997631         Nb = 88.999997748    
                          Ediel =-0.162020648276    
                            current damping = 0.550
 
          Norm of current diis error: 0.86216    
          max. resid. norm for Fia-block=  1.503D-01 for orbital      1a    beta 
          max. resid. fock norm         =  2.625D-01 for orbital      1a    beta 

 ITERATION  ENERGY          1e-ENERGY        2e-ENERGY     RMS[dD(SAO)]   TOL
   4  -1444.1567347704    -6217.5779152     2649.9446603    0.299D-02 0.312D-10
                            Exc = -127.476181740      Eck =  2777.42084203    
                         Ntotal = 178.99999466      Nspin =0.99999983624    
                             Na = 89.999997247         Nb = 88.999997410    
                          Ediel =-0.146641136237    
                            current damping = 0.450
 
          Norm of current diis error: 0.35021    
          max. resid. norm for Fia-block=  5.350D-02 for orbital      1a    beta 
          max. resid. fock norm         =  9.351D-02 for orbital      1a    beta 

 ITERATION  ENERGY          1e-ENERGY        2e-ENERGY     RMS[dD(SAO)]   TOL
   5  -1444.1944950719    -6219.1408061     2651.4697909    0.160D-02 0.283D-10
                            Exc = -127.598714707      Eck =  2779.06850557    
                         Ntotal = 178.99999399      Nspin =0.99999979100    
                             Na = 89.999996888         Nb = 88.999997097    
                          Ediel =-0.146205252547    
                            current damping = 0.350
 
          Norm of current diis error: 0.15071    
          max. resid. norm for Fia-block=  1.696D-02 for orbital     90a    alpha
          max. resid. fock norm         =  2.885D-02 for orbital      1a    beta 
          mo-orthogonalization: Cholesky decomposition

 ITERATION  ENERGY          1e-ENERGY        2e-ENERGY     RMS[dD(SAO)]   TOL
   6  -1444.2027315402    -6219.6966017     2652.0173500    0.978D-03 0.265D-10
                            Exc = -127.592583729      Eck =  2779.60993369    
                         Ntotal = 178.99999368      Nspin =0.99999975463    
                             Na = 89.999996718         Nb = 88.999996963    
                          Ediel =-0.140871009667    
                            current damping = 0.250
 
          Norm of current diis error: 0.67321E-01
          max. resid. norm for Fia-block=  6.962D-03 for orbital     32a    alpha
          max. resid. fock norm         =  1.288D-02 for orbital     32a    alpha

 ITERATION  ENERGY          1e-ENERGY        2e-ENERGY     RMS[dD(SAO)]   TOL
   7  -1444.2044014197    -6219.7317812     2652.0508596    0.344D-03 0.257D-10
                            Exc = -127.609718182      Eck =  2779.66057777    
                         Ntotal = 178.99999351      Nspin =0.99999972393    
                             Na = 89.999996615         Nb = 88.999996891    
                          Ediel =-0.141558576046    
                            current damping = 0.100
 
          Norm of current diis error: 0.17528E-01
          max. resid. norm for Fia-block=  3.607D-03 for orbital     90a    alpha
          max. resid. fock norm         =  3.622D-03 for orbital     90a    alpha

 ITERATION  ENERGY          1e-ENERGY        2e-ENERGY     RMS[dD(SAO)]   TOL
   8  -1444.2046782610    -6219.8998917     2652.2186933    0.190D-03 0.249D-10
                            Exc = -127.615250301      Eck =  2779.83394361    
                         Ntotal = 178.99999342      Nspin =0.99999969349    
                             Na = 89.999996556         Nb = 88.999996863    
                          Ediel =-0.140908307016    
                            current damping = 0.050
 
          Norm of current diis error: 0.85865E-02
          max. resid. norm for Fia-block=  2.505D-03 for orbital     90a    alpha
          max. resid. fock norm         =  2.510D-03 for orbital     90a    alpha

 ITERATION  ENERGY          1e-ENERGY        2e-ENERGY     RMS[dD(SAO)]   TOL
   9  -1444.2048105453    -6219.8944275     2652.2130968    0.116D-03 0.239D-10
                            Exc = -127.612039460      Eck =  2779.82513626    
                         Ntotal = 178.99999339      Nspin =0.99999966803    
                             Na = 89.999996530         Nb = 88.999996862    
                          Ediel =-0.140441658217    
                            current damping = 0.100
 
          Norm of current diis error: 0.65231E-02
          max. resid. norm for Fia-block=  2.169D-03 for orbital     90a    alpha
          max. resid. fock norm         =  2.173D-03 for orbital     90a    alpha

 ITERATION  ENERGY          1e-ENERGY        2e-ENERGY     RMS[dD(SAO)]   TOL
  10  -1444.2049133018    -6219.9119775     2652.2305440    0.877D-04 0.229D-10
                            Exc = -127.612794776      Eck =  2779.84333878    
                         Ntotal = 178.99999336      Nspin =0.99999964634    
                             Na = 89.999996505         Nb = 88.999996859    
                          Ediel =-0.140220516732    
                            current damping = 0.150
 
          Norm of current diis error: 0.49681E-02
          max. resid. norm for Fia-block=  2.311D-03 for orbital     90a    alpha
          max. resid. fock norm         =  2.315D-03 for orbital     90a    alpha
          mo-orthogonalization: Cholesky decomposition

 ITERATION  ENERGY          1e-ENERGY        2e-ENERGY     RMS[dD(SAO)]   TOL
  11  -1444.2050120281    -6219.9365266     2652.2549944    0.854D-04 0.217D-10
                            Exc = -127.613370779      Eck =  2779.86836517    
                         Ntotal = 178.99999334      Nspin =0.99999962407    
                             Na = 89.999996484         Nb = 88.999996860    
                          Ediel =-0.139968368990    
                            current damping = 0.050
 
          Norm of current diis error: 0.48829E-02
          max. resid. norm for Fia-block=  2.273D-03 for orbital     90a    alpha
          max. resid. fock norm         =  2.275D-03 for orbital     90a    alpha

 ITERATION  ENERGY          1e-ENERGY        2e-ENERGY     RMS[dD(SAO)]   TOL
  12  -1444.2051161922    -6219.9499228     2652.2682864    0.899D-04 0.203D-10
                            Exc = -127.612867949      Eck =  2779.88115436    
                         Ntotal = 178.99999332      Nspin =0.99999959981    
                             Na = 89.999996461         Nb = 88.999996861    
                          Ediel =-0.139702560256    
                            current damping = 0.050
 
          Norm of current diis error: 0.49167E-02
          max. resid. norm for Fia-block=  2.219D-03 for orbital     90a    alpha
          max. resid. fock norm         =  2.221D-03 for orbital     90a    alpha

 ITERATION  ENERGY          1e-ENERGY        2e-ENERGY     RMS[dD(SAO)]   TOL
  13  -1444.2052166354    -6219.9673387     2652.2856019    0.861D-04 0.189D-10
                            Exc = -127.613293904      Eck =  2779.89889584    
                         Ntotal = 178.99999330      Nspin =0.99999957600    
                             Na = 89.999996438         Nb = 88.999996862    
                          Ediel =-0.139467286074    
                            current damping = 0.050
 
          Norm of current diis error: 0.48430E-02
          max. resid. norm for Fia-block=  2.025D-03 for orbital     90a    alpha
          max. resid. fock norm         =  2.026D-03 for orbital     90a    alpha

 ITERATION  ENERGY          1e-ENERGY        2e-ENERGY     RMS[dD(SAO)]   TOL
  14  -1444.2053064458    -6219.9819623     2652.3001357    0.775D-04 0.177D-10
                            Exc = -127.613029886      Eck =  2779.91316560    
                         Ntotal = 178.99999328      Nspin =0.99999955418    
                             Na = 89.999996417         Nb = 88.999996863    
                          Ediel =-0.139257064115    
                            current damping = 0.050
 
          Norm of current diis error: 0.49885E-02
          max. resid. norm for Fia-block=  1.303D-03 for orbital     90a    alpha
          max. resid. fock norm         =  1.303D-03 for orbital     90a    alpha

 ITERATION  ENERGY          1e-ENERGY        2e-ENERGY     RMS[dD(SAO)]   TOL
  15  -1444.2053617187    -6219.9905397     2652.3086578    0.504D-04 0.170D-10
                            Exc = -127.613164729      Eck =  2779.92182254    
                         Ntotal = 178.99999327      Nspin =0.99999954019    
                             Na = 89.999996404         Nb = 88.999996863    
                          Ediel =-0.139114648584    
                            current damping = 0.050
 
          Norm of current diis error: 0.54087E-02
          max. resid. norm for Fia-block=  4.116D-04 for orbital     88a    beta 
          max. resid. fock norm         =  4.689D-04 for orbital     88a    beta 
          mo-orthogonalization: Cholesky decomposition

 ITERATION  ENERGY          1e-ENERGY        2e-ENERGY     RMS[dD(SAO)]   TOL
  16  -1444.2053512155    -6219.9975002     2652.3156288    0.102D-04 0.170D-10
                            Exc = -127.613310489      Eck =  2779.92893928    
                         Ntotal = 178.99999327      Nspin =0.99999954109    
                             Na = 89.999996404         Nb = 88.999996863    
                          Ediel =-0.139070473177    
                            current damping = 0.100
 
          Norm of current diis error: 0.68564E-02
          max. resid. norm for Fia-block=  1.449D-03 for orbital     90a    alpha
          max. resid. fock norm         =  1.452D-03 for orbital     90a    alpha

 ITERATION  ENERGY          1e-ENERGY        2e-ENERGY     RMS[dD(SAO)]   TOL
  17  -1444.2054169946    -6220.0036636     2652.3217265    0.510D-04 0.163D-10
                            Exc = -127.613183534      Eck =  2779.93491001    
                         Ntotal = 178.99999325      Nspin =0.99999952582    
                             Na = 89.999996390         Nb = 88.999996864    
                          Ediel =-0.138956646424    
                            current damping = 0.050
 
          Norm of current diis error: 0.59962E-02
          max. resid. norm for Fia-block=  1.335D-03 for orbital     90a    alpha
          max. resid. fock norm         =  1.336D-03 for orbital     90a    alpha

 ITERATION  ENERGY          1e-ENERGY        2e-ENERGY     RMS[dD(SAO)]   TOL
  18  -1444.2054768274    -6220.0076441     2652.3256471    0.499D-04 0.156D-10
                            Exc = -127.613283732      Eck =  2779.93893086    
                         Ntotal = 178.99999324      Nspin =0.99999951140    
                             Na = 89.999996376         Nb = 88.999996865    
                          Ediel =-0.138851115554    
                            current damping = 0.050
 
          Norm of current diis error: 0.55401E-02
          max. resid. norm for Fia-block=  2.910D-03 for orbital     90a    alpha
          max. resid. fock norm         =  2.914D-03 for orbital     90a    alpha

 ITERATION  ENERGY          1e-ENERGY        2e-ENERGY     RMS[dD(SAO)]   TOL
  19  -1444.2056075814    -6220.0207312     2652.3386035    0.107D-03 0.143D-10
                            Exc = -127.612888382      Eck =  2779.95149185    
                         Ntotal = 178.99999321      Nspin =0.99999947977    
                             Na = 89.999996345         Nb = 88.999996865    
                          Ediel =-0.138646750432    
                            current damping = 0.050
 
          Norm of current diis error: 0.45915E-02
          max. resid. norm for Fia-block=  2.893D-03 for orbital     90a    alpha
          max. resid. fock norm         =  2.895D-03 for orbital     90a    alpha

 ITERATION  ENERGY          1e-ENERGY        2e-ENERGY     RMS[dD(SAO)]   TOL
  20  -1444.2057295257    -6220.0262817     2652.3440320    0.105D-03 0.132D-10
                            Exc = -127.613347353      Eck =  2779.95737936    
                         Ntotal = 178.99999318      Nspin =0.99999944855    
                             Na = 89.999996316         Nb = 88.999996868    
                          Ediel =-0.138451185638    
                            current damping = 0.050
 
          Norm of current diis error: 0.54431E-02
          max. resid. norm for Fia-block=  2.826D-03 for orbital     90a    alpha
          max. resid. fock norm         =  2.827D-03 for orbital     90a    alpha
          mo-orthogonalization: Cholesky decomposition

 ITERATION  ENERGY          1e-ENERGY        2e-ENERGY     RMS[dD(SAO)]   TOL
  21  -1444.2058516031    -6220.0431895     2652.3608177    0.103D-03 0.123D-10
                            Exc = -127.613076722      Eck =  2779.97389440    
                         Ntotal = 178.99999315      Nspin =0.99999941837    
                             Na = 89.999996286         Nb = 88.999996868    
                          Ediel =-0.138264272191    
                            current damping = 0.050
 
          Norm of current diis error: 0.45003E-02
          max. resid. norm for Fia-block=  3.675D-03 for orbital     90a    alpha
          max. resid. fock norm         =  3.677D-03 for orbital     90a    alpha

 ITERATION  ENERGY          1e-ENERGY        2e-ENERGY     RMS[dD(SAO)]   TOL
  22  -1444.2060073579    -6220.0463728     2652.3638452    0.132D-03 0.751D-10
                            Exc = -127.613121595     Coul =  2820.56944335    
                            exK = -40.5924765274    
                         Ntotal = 178.99999312      Nspin =0.99999938036    
                             Na = 89.999996249         Nb = 88.999996869    
                          Ediel =-0.138090806170    
                            current damping = 0.050
 
          Norm of current diis error: 0.38993E-02
          max. resid. norm for Fia-block=  2.856D-03 for orbital     90a    alpha
          max. resid. fock norm         =  2.857D-03 for orbital     90a    alpha

 ITERATION  ENERGY          1e-ENERGY        2e-ENERGY     RMS[dD(SAO)]   TOL
  23  -1444.2061207300    -6220.0633062     2652.3806653    0.103D-03 0.476D-10
                            Exc = -127.613023870      Eck =  2779.99368915    
                         Ntotal = 178.99999309      Nspin =0.99999935065    
                             Na = 89.999996220         Nb = 88.999996869    
                          Ediel =-0.137917546964    
                            current damping = 0.050
 
          Norm of current diis error: 0.49986E-02
          max. resid. norm for Fia-block=  1.725D-03 for orbital     90a    alpha
          max. resid. fock norm         =  1.725D-03 for orbital     90a    alpha

 ITERATION  ENERGY          1e-ENERGY        2e-ENERGY     RMS[dD(SAO)]   TOL
  24  -1444.2061883310    -6220.0661337     2652.3834252    0.629D-04 0.349D-10
                            Exc = -127.613048023      Eck =  2779.99647321    
                         Ntotal = 178.99999307      Nspin =0.99999933292    
                             Na = 89.999996202         Nb = 88.999996869    
                          Ediel =-0.137841594073    
                            current damping = 0.050
 
          Norm of current diis error: 0.51567E-02
          max. resid. norm for Fia-block=  1.081D-03 for orbital     88a    beta 
          max. resid. fock norm         =  1.215D-03 for orbital     88a    beta 

 ITERATION  ENERGY          1e-ENERGY        2e-ENERGY     RMS[dD(SAO)]   TOL
  25  -1444.2061363478    -6220.0700264     2652.3873699    0.340D-04 0.360D-10
                            Exc = -127.612999488      Eck =  2780.00036938    
                         Ntotal = 178.99999308      Nspin =0.99999934290    
                             Na = 89.999996212         Nb = 88.999996869    
                          Ediel =-0.137858305705    
                            current damping = 0.100
 
          Norm of current diis error: 0.78956E-02
          max. resid. norm for Fia-block=  1.301D-03 for orbital     90a    alpha
          max. resid. fock norm         =  1.303D-03 for orbital     90a    alpha
          mo-orthogonalization: Cholesky decomposition

 ITERATION  ENERGY          1e-ENERGY        2e-ENERGY     RMS[dD(SAO)]   TOL
  26  -1444.2061953159    -6220.0708821     2652.3881666    0.440D-04 0.322D-10
                            Exc = -127.612981458      Eck =  2780.00114810    
                         Ntotal = 178.99999307      Nspin =0.99999932977    
                             Na = 89.999996199         Nb = 88.999996869    
                          Ediel =-0.137813206524    
                            current damping = 0.050
 
          Norm of current diis error: 0.62560E-02
          max. resid. norm for Fia-block=  1.563D-03 for orbital     90a    alpha
          max. resid. fock norm         =  1.563D-03 for orbital     90a    alpha

 ITERATION  ENERGY          1e-ENERGY        2e-ENERGY     RMS[dD(SAO)]   TOL
  27  -1444.2062631064    -6220.0649754     2652.3821921    0.566D-04 0.264D-10
                            Exc = -127.613090756      Eck =  2779.99528283    
                         Ntotal = 178.99999305      Nspin =0.99999931383    
                             Na = 89.999996183         Nb = 88.999996869    
                          Ediel =-0.137786406310    
                            current damping = 0.100
 
          Norm of current diis error: 0.47234E-02
          max. resid. norm for Fia-block=  2.495D-03 for orbital     90a    alpha
          max. resid. fock norm         =  2.496D-03 for orbital     90a    alpha

 ITERATION  ENERGY          1e-ENERGY        2e-ENERGY     RMS[dD(SAO)]   TOL
  28  -1444.2063573116    -6220.0760504     2652.3931729    0.853D-04 0.212D-10
                            Exc = -127.612870251      Eck =  2780.00604312    
                         Ntotal = 178.99999303      Nspin =0.99999928925    
                             Na = 89.999996159         Nb = 88.999996869    
                          Ediel =-0.137652163777    
                            current damping = 0.150
 
          Norm of current diis error: 0.47946E-02
          max. resid. norm for Fia-block=  2.813D-03 for orbital     90a    alpha
          max. resid. fock norm         =  2.815D-03 for orbital     90a    alpha

 ITERATION  ENERGY          1e-ENERGY        2e-ENERGY     RMS[dD(SAO)]   TOL
  29  -1444.2064576332    -6220.0726529     2652.3896751    0.916D-04 0.171D-10
                            Exc = -127.613200773      Eck =  2780.00287584    
                         Ntotal = 178.99999300      Nspin =0.99999926353    
                             Na = 89.999996134         Nb = 88.999996870    
                          Ediel =-0.137620521535    
                            current damping = 0.200
 
          Norm of current diis error: 0.44987E-02
          max. resid. norm for Fia-block=  3.290D-03 for orbital     90a    alpha
          max. resid. fock norm         =  3.291D-03 for orbital     90a    alpha

 ITERATION  ENERGY          1e-ENERGY        2e-ENERGY     RMS[dD(SAO)]   TOL
  30  -1444.2065687051    -6220.0782968     2652.3952079    0.103D-03 0.147D-10
                            Exc = -127.612926315      Eck =  2780.00813421    
                         Ntotal = 178.99999297      Nspin =0.99999923500    
                             Na = 89.999996105         Nb = 88.999996870    
                          Ediel =-0.137501983538    
                            current damping = 0.250
 
          Norm of current diis error: 0.35538E-02
          max. resid. norm for Fia-block=  3.951D-03 for orbital     90a    alpha
          max. resid. fock norm         =  3.953D-03 for orbital     90a    alpha
          mo-orthogonalization: Cholesky decomposition

 ITERATION  ENERGY          1e-ENERGY        2e-ENERGY     RMS[dD(SAO)]   TOL
  31  -1444.2066905838    -6220.0791992     2652.3959884    0.117D-03 0.127D-10
                            Exc = -127.613193755      Eck =  2780.00918218    
                         Ntotal = 178.99999294      Nspin =0.99999920278    
                             Na = 89.999996073         Nb = 88.999996870    
                          Ediel =-0.137436493548    
                            current damping = 0.100
 
          Norm of current diis error: 0.33358E-02
          max. resid. norm for Fia-block=  3.906D-03 for orbital     90a    alpha
          max. resid. fock norm         =  3.909D-03 for orbital     90a    alpha

 ITERATION  ENERGY          1e-ENERGY        2e-ENERGY     RMS[dD(SAO)]   TOL
  32  -1444.2068215675    -6220.0840469     2652.4007052    0.132D-03 0.113D-10
                            Exc = -127.612960346      Eck =  2780.01366551    
                         Ntotal = 178.99999291      Nspin =0.99999916768    
                             Na = 89.999996038         Nb = 88.999996870    
                          Ediel =-0.137327398196    
                            current damping = 0.050
 
          Norm of current diis error: 0.30388E-02
          max. resid. norm for Fia-block=  3.594D-03 for orbital     90a    alpha
          max. resid. fock norm         =  3.595D-03 for orbital     90a    alpha

 ITERATION  ENERGY          1e-ENERGY        2e-ENERGY     RMS[dD(SAO)]   TOL
  33  -1444.2069407783    -6220.0814728     2652.3980118    0.127D-03 0.103D-10
                            Exc = -127.613313875      Eck =  2780.01132571    
                         Ntotal = 178.99999288      Nspin =0.99999913449    
                             Na = 89.999996005         Nb = 88.999996870    
                          Ediel =-0.137284882280    
                            current damping = 0.100
 
          Norm of current diis error: 0.30037E-02
          max. resid. norm for Fia-block=  2.645D-03 for orbital     90a    alpha
          max. resid. fock norm         =  2.646D-03 for orbital     90a    alpha

 ITERATION  ENERGY          1e-ENERGY        2e-ENERGY     RMS[dD(SAO)]   TOL
  34  -1444.2070199192    -6220.0870758     2652.4035357    0.900D-04 0.981D-11
                            Exc = -127.612999027      Eck =  2780.01653476    
                         Ntotal = 178.99999285      Nspin =0.99999911180    
                             Na = 89.999995982         Nb = 88.999996870    
                          Ediel =-0.137208723338    
                            current damping = 0.150
 
          Norm of current diis error: 0.31277E-02
          max. resid. norm for Fia-block=  1.795D-03 for orbital     90a    alpha
          max. resid. fock norm         =  1.795D-03 for orbital     90a    alpha

 ITERATION  ENERGY          1e-ENERGY        2e-ENERGY     RMS[dD(SAO)]   TOL
  35  -1444.2070690868    -6220.0846878     2652.4010986    0.590D-04 0.952D-11
                            Exc = -127.613108836      Eck =  2780.01420739    
                         Ntotal = 178.99999284      Nspin =0.99999909711    
                             Na = 89.999995967         Nb = 88.999996870    
                          Ediel =-0.137200932166    
                            current damping = 0.200
 
          Norm of current diis error: 0.32320E-02
          max. resid. norm for Fia-block=  8.465D-04 for orbital     78a    beta 
          max. resid. fock norm         =  8.860D-04 for orbital     88a    beta 
          mo-orthogonalization: Cholesky decomposition

 ITERATION  ENERGY          1e-ENERGY        2e-ENERGY     RMS[dD(SAO)]   TOL
  36  -1444.2070433158    -6220.0851998     2652.4016363    0.227D-04 0.959D-11
                            Exc = -127.613019411      Eck =  2780.01465574    
                         Ntotal = 178.99999284      Nspin =0.99999910270    
                             Na = 89.999995973         Nb = 88.999996871    
                          Ediel =-0.137219003039    
                            current damping = 0.250
 
          Norm of current diis error: 0.52552E-02
          max. resid. norm for Fia-block=  1.558D-03 for orbital     90a    alpha
          max. resid. fock norm         =  1.563D-03 for orbital     90a    alpha

 ITERATION  ENERGY          1e-ENERGY        2e-ENERGY     RMS[dD(SAO)]   TOL
  37  -1444.2070867246    -6220.0851611     2652.4015542    0.460D-04 0.948D-11
                            Exc = -127.613019987      Eck =  2780.01457420    
                         Ntotal = 178.99999283      Nspin =0.99999909106    
                             Na = 89.999995961         Nb = 88.999996870    
                          Ediel =-0.137197269121    
                            current damping = 0.300
 
          Norm of current diis error: 0.41899E-02
          max. resid. norm for Fia-block=  8.891D-04 for orbital     90a    alpha
          max. resid. fock norm         =  8.894D-04 for orbital     90a    alpha

 ITERATION  ENERGY          1e-ENERGY        2e-ENERGY     RMS[dD(SAO)]   TOL
  38  -1444.2071077657    -6220.0826570     2652.3990290    0.258D-04 0.948D-11
                            Exc = -127.613147705      Eck =  2780.01217672    
                         Ntotal = 178.99999282      Nspin =0.99999908473    
                             Na = 89.999995955         Nb = 88.999996870    
                          Ediel =-0.137205291561    
                            current damping = 0.150
 
          Norm of current diis error: 0.42113E-02
          max. resid. norm for Fia-block=  1.322D-03 for orbital     90a    alpha
          max. resid. fock norm         =  1.323D-03 for orbital     90a    alpha

 ITERATION  ENERGY          1e-ENERGY        2e-ENERGY     RMS[dD(SAO)]   TOL
  39  -1444.2071445307    -6220.0839517     2652.4002870    0.433D-04 0.948D-11
                            Exc = -127.613041060      Eck =  2780.01332807    
                         Ntotal = 178.99999281      Nspin =0.99999907401    
                             Na = 89.999995943         Nb = 88.999996869    
                          Ediel =-0.137174370354    
                            current damping = 0.200
 
          Norm of current diis error: 0.34356E-02
          max. resid. norm for Fia-block=  2.694D-03 for orbital     90a    alpha
          max. resid. fock norm         =  2.699D-03 for orbital     90a    alpha

 ITERATION  ENERGY          1e-ENERGY        2e-ENERGY     RMS[dD(SAO)]   TOL
  40  -1444.2072121750    -6220.0820787     2652.3983464    0.832D-04 0.949D-11
                            Exc = -127.613219586      Eck =  2780.01156598    
                         Ntotal = 178.99999279      Nspin =0.99999905376    
                             Na = 89.999995923         Nb = 88.999996869    
                          Ediel =-0.137160945978    
                            current damping = 0.250
 
          Norm of current diis error: 0.27607E-02
          max. resid. norm for Fia-block=  2.504D-03 for orbital     90a    alpha
          max. resid. fock norm         =  2.509D-03 for orbital     90a    alpha
          mo-orthogonalization: Cholesky decomposition

 ITERATION  ENERGY          1e-ENERGY        2e-ENERGY     RMS[dD(SAO)]   TOL
  41  -1444.2072679952    -6220.0855370     2652.4017488    0.742D-04 0.949D-11
                            Exc = -127.612996150      Eck =  2780.01474494    
                         Ntotal = 178.99999277      Nspin =0.99999903637    
                             Na = 89.999995905         Nb = 88.999996868    
                          Ediel =-0.137105556285    
                            current damping = 0.300
 
          Norm of current diis error: 0.27977E-02
          max. resid. norm for Fia-block=  2.268D-03 for orbital     90a    alpha
          max. resid. fock norm         =  2.270D-03 for orbital     90a    alpha

 ITERATION  ENERGY          1e-ENERGY        2e-ENERGY     RMS[dD(SAO)]   TOL
  42  -1444.2073146702    -6220.0809940     2652.3971591    0.649D-04 0.949D-11
                            Exc = -127.613231144      Eck =  2780.01039028    
                         Ntotal = 178.99999276      Nspin =0.99999902147    
                             Na = 89.999995889         Nb = 88.999996868    
                          Ediel =-0.137116111751    
                            current damping = 0.350
 
          Norm of current diis error: 0.24417E-02
          max. resid. norm for Fia-block=  3.273D-03 for orbital     90a    alpha
          max. resid. fock norm         =  3.278D-03 for orbital     90a    alpha

 ITERATION  ENERGY          1e-ENERGY        2e-ENERGY     RMS[dD(SAO)]   TOL
  43  -1444.2073769251    -6220.0830438     2652.3991467    0.895D-04 0.751D-10
                            Exc = -127.613134344     Coul =  2820.60503033    
                            exK = -40.5927492969    
                         Ntotal = 178.99999274      Nspin =0.99999900330    
                             Na = 89.999995870         Nb = 88.999996866    
                          Ediel =-0.137067331236    
                            current damping = 0.400
 
          Norm of current diis error: 0.19230E-02
          max. resid. norm for Fia-block=  1.889D-03 for orbital     90a    alpha
          max. resid. fock norm         =  1.893D-03 for orbital     90a    alpha

 ITERATION  ENERGY          1e-ENERGY        2e-ENERGY     RMS[dD(SAO)]   TOL
  44  -1444.2074077490    -6220.0820380     2652.3981101    0.500D-04 0.476D-10
                            Exc = -127.613222111      Eck =  2780.01133222    
                         Ntotal = 178.99999273      Nspin =0.99999899269    
                             Na = 89.999995859         Nb = 88.999996866    
                          Ediel =-0.137069923353    
                            current damping = 0.450
 
          Norm of current diis error: 0.22583E-02
          max. resid. norm for Fia-block=  2.287D-03 for orbital     90a    alpha
          max. resid. fock norm         =  2.289D-03 for orbital     90a    alpha

 ITERATION  ENERGY          1e-ENERGY        2e-ENERGY     RMS[dD(SAO)]   TOL
  45  -1444.2074432783    -6220.0811197     2652.3971563    0.585D-04 0.304D-10
                            Exc = -127.613210704      Eck =  2780.01036698    
                         Ntotal = 178.99999271      Nspin =0.99999898023    
                             Na = 89.999995846         Nb = 88.999996866    
                          Ediel =-0.137051996691    
                            current damping = 0.300
 
          Norm of current diis error: 0.18585E-02
          max. resid. norm for Fia-block=  2.685D-03 for orbital     90a    alpha
          max. resid. fock norm         =  2.688D-03 for orbital     90a    alpha
          mo-orthogonalization: Cholesky decomposition

 ITERATION  ENERGY          1e-ENERGY        2e-ENERGY     RMS[dD(SAO)]   TOL
  46  -1444.2074864324    -6220.0799176     2652.3959110    0.764D-04 0.225D-10
                            Exc = -127.613282137      Eck =  2780.00919317    
                         Ntotal = 178.99999269      Nspin =0.99999896432    
                             Na = 89.999995829         Nb = 88.999996865    
                          Ediel =-0.137037562903    
                            current damping = 0.150
 
          Norm of current diis error: 0.15814E-02
          max. resid. norm for Fia-block=  1.631D-03 for orbital     90a    alpha
          max. resid. fock norm         =  1.634D-03 for orbital     90a    alpha

 ITERATION  ENERGY          1e-ENERGY        2e-ENERGY     RMS[dD(SAO)]   TOL
  47  -1444.2075132063    -6220.0821270     2652.3980936    0.528D-04 0.201D-10
                            Exc = -127.613134666      Eck =  2780.01122824    
                         Ntotal = 178.99999268      Nspin =0.99999895373    
                             Na = 89.999995819         Nb = 88.999996865    
                          Ediel =-0.137010986220    
                            current damping = 0.200
 
          Norm of current diis error: 0.20097E-02
          max. resid. norm for Fia-block=  1.510D-03 for orbital     90a    alpha
          max. resid. fock norm         =  1.511D-03 for orbital     90a    alpha

 ITERATION  ENERGY          1e-ENERGY        2e-ENERGY     RMS[dD(SAO)]   TOL
  48  -1444.2075363429    -6220.0792560     2652.3951994    0.471D-04 0.185D-10
                            Exc = -127.613246835      Eck =  2780.00844627    
                         Ntotal = 178.99999267      Nspin =0.99999894437    
                             Na = 89.999995809         Nb = 88.999996865    
                          Ediel =-0.137018492685    
                            current damping = 0.250
 
          Norm of current diis error: 0.17261E-02
          max. resid. norm for Fia-block=  1.064D-03 for orbital     90a    alpha
          max. resid. fock norm         =  1.064D-03 for orbital     90a    alpha

 ITERATION  ENERGY          1e-ENERGY        2e-ENERGY     RMS[dD(SAO)]   TOL
  49  -1444.2075509206    -6220.0793918     2652.3953207    0.322D-04 0.177D-10
                            Exc = -127.613169489      Eck =  2780.00849024    
                         Ntotal = 178.99999267      Nspin =0.99999893801    
                             Na = 89.999995802         Nb = 88.999996864    
                          Ediel =-0.137007183521    
                            current damping = 0.300
 
          Norm of current diis error: 0.17490E-02
          max. resid. norm for Fia-block=  2.532D-04 for orbital     90a    alpha
          max. resid. fock norm         =  2.545D-04 for orbital     90a    alpha

 ITERATION  ENERGY          1e-ENERGY        2e-ENERGY     RMS[dD(SAO)]   TOL
  50  -1444.2075531294    -6220.0786794     2652.3946061    0.840D-05 0.175D-10
                            Exc = -127.613177262      Eck =  2780.00778334    
                         Ntotal = 178.99999267      Nspin =0.99999893651    
                             Na = 89.999995801         Nb = 88.999996864    
                          Ediel =-0.137017366359    
                            current damping = 0.350
 
          Norm of current diis error: 0.22932E-02
          max. resid. norm for Fia-block=  2.510D-04 for orbital     90a    alpha
          max. resid. fock norm         =  2.511D-04 for orbital     90a    alpha
          mo-orthogonalization: Cholesky decomposition

 ITERATION  ENERGY          1e-ENERGY        2e-ENERGY     RMS[dD(SAO)]   TOL
  51  -1444.2075560763    -6220.0773336     2652.3932574    0.736D-05 0.173D-10
                            Exc = -127.613203003      Eck =  2780.00646037    
                         Ntotal = 178.99999266      Nspin =0.99999893515    
                             Na = 89.999995799         Nb = 88.999996864    
                          Ediel =-0.137026512571    
                            current damping = 0.200
 
          Norm of current diis error: 0.23629E-02
          max. resid. norm for Fia-block=  2.821D-04 for orbital     90a    alpha
          max. resid. fock norm         =  2.823D-04 for orbital     90a    alpha

 ITERATION  ENERGY          1e-ENERGY        2e-ENERGY     RMS[dD(SAO)]   TOL
  52  -1444.2075599509    -6220.0763595     2652.3922794    0.903D-05 0.170D-10
                            Exc = -127.613215836      Eck =  2780.00549522    
                         Ntotal = 178.99999266      Nspin =0.99999893341    
                             Na = 89.999995798         Nb = 88.999996864    
                          Ediel =-0.137032004453    
                            current damping = 0.050
 
          Norm of current diis error: 0.23489E-02
          max. resid. norm for Fia-block=  6.133D-04 for orbital     90a    alpha
          max. resid. fock norm         =  6.136D-04 for orbital     90a    alpha

 ITERATION  ENERGY          1e-ENERGY        2e-ENERGY     RMS[dD(SAO)]   TOL
  53  -1444.2075700268    -6220.0751774     2652.3910872    0.222D-04 0.164D-10
                            Exc = -127.613270218      Eck =  2780.00435739    
                         Ntotal = 178.99999266      Nspin =0.99999892897    
                             Na = 89.999995793         Nb = 88.999996864    
                          Ediel =-0.137033364485    
                            current damping = 0.050
 
          Norm of current diis error: 0.18632E-02
          max. resid. norm for Fia-block=  1.055D-03 for orbital     90a    alpha
          max. resid. fock norm         =  1.059D-03 for orbital     90a    alpha

 ITERATION  ENERGY          1e-ENERGY        2e-ENERGY     RMS[dD(SAO)]   TOL
  54  -1444.2075855286    -6220.0789432     2652.3948375    0.376D-04 0.153D-10
                            Exc = -127.613061741      Eck =  2780.00789922    
                         Ntotal = 178.99999265      Nspin =0.99999892170    
                             Na = 89.999995785         Nb = 88.999996863    
                          Ediel =-0.136998050937    
                            current damping = 0.100
 
          Norm of current diis error: 0.19165E-02
          max. resid. norm for Fia-block=  7.738D-04 for orbital     90a    alpha
          max. resid. fock norm         =  7.744D-04 for orbital     90a    alpha

 ITERATION  ENERGY          1e-ENERGY        2e-ENERGY     RMS[dD(SAO)]   TOL
  55  -1444.2075960507    -6220.0741562     2652.3900400    0.268D-04 0.148D-10
                            Exc = -127.613297270      Eck =  2780.00333729    
                         Ntotal = 178.99999264      Nspin =0.99999891683    
                             Na = 89.999995780         Nb = 88.999996863    
                          Ediel =-0.137029180596    
                            current damping = 0.150
 
          Norm of current diis error: 0.16958E-02
          max. resid. norm for Fia-block=  1.565D-03 for orbital     90a    alpha
          max. resid. fock norm         =  1.570D-03 for orbital     90a    alpha
          mo-orthogonalization: Cholesky decomposition

 ITERATION  ENERGY          1e-ENERGY        2e-ENERGY     RMS[dD(SAO)]   TOL
  56  -1444.2076153670    -6220.0750871     2652.3909515    0.502D-04 0.139D-10
                            Exc = -127.613195818      Eck =  2780.00414736    
                         Ntotal = 178.99999263      Nspin =0.99999890767    
                             Na = 89.999995770         Nb = 88.999996863    
                          Ediel =-0.137006563510    
                            current damping = 0.200
 
          Norm of current diis error: 0.11164E-02
          max. resid. norm for Fia-block=  1.367D-03 for orbital     90a    alpha
          max. resid. fock norm         =  1.374D-03 for orbital     90a    alpha

 ITERATION  ENERGY          1e-ENERGY        2e-ENERGY     RMS[dD(SAO)]   TOL
  57  -1444.2076296758    -6220.0745989     2652.3904490    0.417D-04 0.133D-10
                            Exc = -127.613280177      Eck =  2780.00372920    
                         Ntotal = 178.99999263      Nspin =0.99999890047    
                             Na = 89.999995763         Nb = 88.999996862    
                          Ediel =-0.137006251667    
                            current damping = 0.250
 
          Norm of current diis error: 0.11473E-02
          max. resid. norm for Fia-block=  1.371D-03 for orbital     90a    alpha
          max. resid. fock norm         =  1.372D-03 for orbital     90a    alpha

 ITERATION  ENERGY          1e-ENERGY        2e-ENERGY     RMS[dD(SAO)]   TOL
  58  -1444.2076425433    -6220.0743561     2652.3901934    0.405D-04 0.130D-10
                            Exc = -127.613220358      Eck =  2780.00341372    
                         Ntotal = 178.99999262      Nspin =0.99999889354    
                             Na = 89.999995755         Nb = 88.999996862    
                          Ediel =-0.136992054136    
                            current damping = 0.100
 
          Norm of current diis error: 0.88839E-03
          max. resid. norm for Fia-block=  1.459D-03 for orbital     90a    alpha
          max. resid. fock norm         =  1.463D-03 for orbital     90a    alpha

 ITERATION  ENERGY          1e-ENERGY        2e-ENERGY     RMS[dD(SAO)]   TOL
  59  -1444.2076564381    -6220.0732827     2652.3891061    0.487D-04 0.125D-10
                            Exc = -127.613329342      Eck =  2780.00243542    
                         Ntotal = 178.99999261      Nspin =0.99999888540    
                             Na = 89.999995747         Nb = 88.999996861    
                          Ediel =-0.136993494744    
                            current damping = 0.050
 
          Norm of current diis error: 0.81784E-03
          max. resid. norm for Fia-block=  9.333D-04 for orbital     90a    alpha
          max. resid. fock norm         =  9.341D-04 for orbital     90a    alpha

 ITERATION  ENERGY          1e-ENERGY        2e-ENERGY     RMS[dD(SAO)]   TOL
  60  -1444.2076647149    -6220.0747005     2652.3905157    0.330D-04 0.122D-10
                            Exc = -127.613174831      Eck =  2780.00369048    
                         Ntotal = 178.99999260      Nspin =0.99999887994    
                             Na = 89.999995741         Nb = 88.999996861    
                          Ediel =-0.136970167716    
                            current damping = 0.100
 
          Norm of current diis error: 0.96255E-03
          max. resid. norm for Fia-block=  9.154D-04 for orbital     90a    alpha
          max. resid. fock norm         =  9.161D-04 for orbital     90a    alpha
          mo-orthogonalization: Cholesky decomposition

 ITERATION  ENERGY          1e-ENERGY        2e-ENERGY     RMS[dD(SAO)]   TOL
  61  -1444.2076720571    -6220.0729647     2652.3887725    0.310D-04 0.120D-10
                            Exc = -127.613286196      Eck =  2780.00205868    
                         Ntotal = 178.99999260      Nspin =0.99999887476    
                             Na = 89.999995735         Nb = 88.999996861    
                          Ediel =-0.136978423652    
                            current damping = 0.150
 
          Norm of current diis error: 0.71079E-03
          max. resid. norm for Fia-block=  1.124D-03 for orbital     90a    alpha
          max. resid. fock norm         =  1.125D-03 for orbital     90a    alpha

 ITERATION  ENERGY          1e-ENERGY        2e-ENERGY     RMS[dD(SAO)]   TOL
  62  -1444.2076797248    -6220.0733514     2652.3891515    0.363D-04 0.117D-10
                            Exc = -127.613223262      Eck =  2780.00237479    
                         Ntotal = 178.99999259      Nspin =0.99999886878    
                             Na = 89.999995729         Nb = 88.999996860    
                          Ediel =-0.136962627067    
                            current damping = 0.200
 
          Norm of current diis error: 0.67275E-03
          max. resid. norm for Fia-block=  4.019D-04 for orbital     90a    alpha
          max. resid. fock norm         =  4.029D-04 for orbital     90a    alpha

 ITERATION  ENERGY          1e-ENERGY        2e-ENERGY     RMS[dD(SAO)]   TOL
  63  -1444.2076819881    -6220.0726549     2652.3884527    0.128D-04 0.116D-10
                            Exc = -127.613281678      Eck =  2780.00173437    
                         Ntotal = 178.99999259      Nspin =0.99999886678    
                             Na = 89.999995727         Nb = 88.999996860    
                          Ediel =-0.136973756085    
                            current damping = 0.250
 
          Norm of current diis error: 0.89585E-03
          max. resid. norm for Fia-block=  6.737D-04 for orbital     90a    alpha
          max. resid. fock norm         =  6.744D-04 for orbital     90a    alpha

 ITERATION  ENERGY          1e-ENERGY        2e-ENERGY     RMS[dD(SAO)]   TOL
  64  -1444.2076881038    -6220.0723290     2652.3881207    0.201D-04 0.751D-10
                            Exc = -127.613269167     Coul =  2820.59452470    
                            exK = -40.5931347978    
                         Ntotal = 178.99999258      Nspin =0.99999886442    
                             Na = 89.999995725         Nb = 88.999996860    
                          Ediel =-0.136968980134    
                            current damping = 0.100
 
          Norm of current diis error: 0.66895E-03
          max. resid. norm for Fia-block=  6.151D-04 for orbital     90a    alpha
          max. resid. fock norm         =  6.156D-04 for orbital     90a    alpha

 ITERATION  ENERGY          1e-ENERGY        2e-ENERGY     RMS[dD(SAO)]   TOL
  65  -1444.2076917476    -6220.0716832     2652.3874713    0.209D-04 0.476D-10
                            Exc = -127.613301659      Eck =  2780.00077298    
                         Ntotal = 178.99999258      Nspin =0.99999886109    
                             Na = 89.999995721         Nb = 88.999996860    
                          Ediel =-0.136971461472    
                            current damping = 0.050
 
          Norm of current diis error: 0.58920E-03
          max. resid. norm for Fia-block=  3.366D-04 for orbital     90a    alpha
          max. resid. fock norm         =  3.370D-04 for orbital     90a    alpha
          mo-orthogonalization: Cholesky decomposition

 ITERATION  ENERGY          1e-ENERGY        2e-ENERGY     RMS[dD(SAO)]   TOL
  66  -1444.2076935964    -6220.0722136     2652.3879998    0.122D-04 0.353D-10
                            Exc = -127.613224292      Eck =  2780.00122414    
                         Ntotal = 178.99999258      Nspin =0.99999885924    
                             Na = 89.999995719         Nb = 88.999996860    
                          Ediel =-0.136962550742    
                            current damping = 0.100
 
          Norm of current diis error: 0.78404E-03
          max. resid. norm for Fia-block=  4.584D-04 for orbital     90a    alpha
          max. resid. fock norm         =  4.586D-04 for orbital     90a    alpha

 ITERATION  ENERGY          1e-ENERGY        2e-ENERGY     RMS[dD(SAO)]   TOL
  67  -1444.2076961271    -6220.0716402     2652.3874239    0.157D-04 0.287D-10
                            Exc = -127.613243391      Eck =  2780.00066730    
                         Ntotal = 178.99999258      Nspin =0.99999885675    
                             Na = 89.999995716         Nb = 88.999996860    
                          Ediel =-0.136963104214    
                            current damping = 0.150
 
          Norm of current diis error: 0.53005E-03
          max. resid. norm for Fia-block=  5.373D-04 for orbital     90a    alpha
          max. resid. fock norm         =  5.389D-04 for orbital     90a    alpha

 ITERATION  ENERGY          1e-ENERGY        2e-ENERGY     RMS[dD(SAO)]   TOL
  68  -1444.2076987031    -6220.0710359     2652.3868170    0.173D-04 0.240D-10
                            Exc = -127.613283942      Eck =  2780.00010097    
                         Ntotal = 178.99999257      Nspin =0.99999885414    
                             Na = 89.999995714         Nb = 88.999996859    
                          Ediel =-0.136966890945    
                            current damping = 0.050
 
          Norm of current diis error: 0.48458E-03
          max. resid. norm for Fia-block=  7.463D-04 for orbital     90a    alpha
          max. resid. fock norm         =  7.479D-04 for orbital     90a    alpha

 ITERATION  ENERGY          1e-ENERGY        2e-ENERGY     RMS[dD(SAO)]   TOL
  69  -1444.2077022475    -6220.0713781     2652.3871557    0.263D-04 0.200D-10
                            Exc = -127.613237952      Eck =  2780.00039366    
                         Ntotal = 178.99999257      Nspin =0.99999885022    
                             Na = 89.999995709         Nb = 88.999996859    
                          Ediel =-0.136956493958    
                            current damping = 0.100
 
          Norm of current diis error: 0.42832E-03
          max. resid. norm for Fia-block=  2.137D-04 for orbital     90a    alpha
          max. resid. fock norm         =  2.139D-04 for orbital     90a    alpha

 ITERATION  ENERGY          1e-ENERGY        2e-ENERGY     RMS[dD(SAO)]   TOL
  70  -1444.2077029832    -6220.0705985     2652.3863753    0.749D-05 0.196D-10
                            Exc = -127.613274054      Eck =  2779.99964937    
                         Ntotal = 178.99999257      Nspin =0.99999884923    
                             Na = 89.999995708         Nb = 88.999996859    
                          Ediel =-0.136964050224    
                            current damping = 0.150
 
          Norm of current diis error: 0.59002E-03
          max. resid. norm for Fia-block=  4.802D-04 for orbital     90a    alpha
          max. resid. fock norm         =  4.809D-04 for orbital     90a    alpha
          mo-orthogonalization: Cholesky decomposition

 ITERATION  ENERGY          1e-ENERGY        2e-ENERGY     RMS[dD(SAO)]   TOL
  71  -1444.2077046421    -6220.0702275     2652.3860027    0.155D-04 0.214D-10
                            Exc = -127.613284294      Eck =  2779.99928695    
                         Ntotal = 178.99999256      Nspin =0.99999884700    
                             Na = 89.999995706         Nb = 88.999996859    
                          Ediel =-0.136962303631    
                            current damping = 0.050
 
          Norm of current diis error: 0.34771E-03
          max. resid. norm for Fia-block=  5.186D-04 for orbital     90a    alpha
          max. resid. fock norm         =  5.201D-04 for orbital     90a    alpha

 ITERATION  ENERGY          1e-ENERGY        2e-ENERGY     RMS[dD(SAO)]   TOL
  72  -1444.2077064122    -6220.0707768     2652.3865502    0.182D-04 0.209D-10
                            Exc = -127.613260303      Eck =  2779.99981047    
                         Ntotal = 178.99999256      Nspin =0.99999884445    
                             Na = 89.999995703         Nb = 88.999996859    
                          Ediel =-0.136956334531    
                            current damping = 0.100
 
          Norm of current diis error: 0.29174E-03
          max. resid. norm for Fia-block=  4.587D-04 for orbital     90a    alpha
          max. resid. fock norm         =  4.591D-04 for orbital     90a    alpha

 ITERATION  ENERGY          1e-ENERGY        2e-ENERGY     RMS[dD(SAO)]   TOL
  73  -1444.2077077657    -6220.0699694     2652.3857415    0.155D-04 0.203D-10
                            Exc = -127.613273121      Eck =  2779.99901461    
                         Ntotal = 178.99999256      Nspin =0.99999884229    
                             Na = 89.999995701         Nb = 88.999996858    
                          Ediel =-0.136955434990    
                            current damping = 0.150
 
          Norm of current diis error: 0.25819E-03
          max. resid. norm for Fia-block=  2.577D-04 for orbital     90a    alpha
          max. resid. fock norm         =  2.581D-04 for orbital     90a    alpha

 ITERATION  ENERGY          1e-ENERGY        2e-ENERGY     RMS[dD(SAO)]   TOL
  74  -1444.2077083634    -6220.0702885     2652.3860600    0.837D-05 0.199D-10
                            Exc = -127.613274760      Eck =  2779.99933473    
                         Ntotal = 178.99999256      Nspin =0.99999884113    
                             Na = 89.999995699         Nb = 88.999996858    
                          Ediel =-0.136956540998    
                            current damping = 0.200
 
          Norm of current diis error: 0.30996E-03
          max. resid. norm for Fia-block=  3.338D-04 for orbital     90a    alpha
          max. resid. fock norm         =  3.341D-04 for orbital     90a    alpha

 ITERATION  ENERGY          1e-ENERGY        2e-ENERGY     RMS[dD(SAO)]   TOL
  75  -1444.2077092742    -6220.0700431     2652.3858137    0.104D-04 0.214D-10
                            Exc = -127.613271941      Eck =  2779.99908561    
                         Ntotal = 178.99999256      Nspin =0.99999883964    
                             Na = 89.999995698         Nb = 88.999996858    
                          Ediel =-0.136954197467    
                            current damping = 0.250
 
          Norm of current diis error: 0.20966E-03
          max. resid. norm for Fia-block=  4.781D-04 for orbital     90a    alpha
          max. resid. fock norm         =  4.793D-04 for orbital     90a    alpha
          mo-orthogonalization: Cholesky decomposition

 ITERATION  ENERGY          1e-ENERGY        2e-ENERGY     RMS[dD(SAO)]   TOL
  76  -1444.2077104050    -6220.0700332     2652.3858026    0.141D-04 0.224D-10
                            Exc = -127.613266483      Eck =  2779.99906912    
                         Ntotal = 178.99999255      Nspin =0.99999883763    
                             Na = 89.999995696         Nb = 88.999996858    
                          Ediel =-0.136950190848    
                            current damping = 0.100
 
          Norm of current diis error: 0.20567E-03
          max. resid. norm for Fia-block=  1.487D-04 for orbital     90a    alpha
          max. resid. fock norm         =  1.487D-04 for orbital     90a    alpha

 ITERATION  ENERGY          1e-ENERGY        2e-ENERGY     RMS[dD(SAO)]   TOL
  77  -1444.2077106399    -6220.0696615     2652.3854306    0.516D-05 0.221D-10
                            Exc = -127.613275309      Eck =  2779.99870595    
                         Ntotal = 178.99999255      Nspin =0.99999883692    
                             Na = 89.999995695         Nb = 88.999996858    
                          Ediel =-0.136953131264    
                            current damping = 0.050
 
          Norm of current diis error: 0.26749E-03
          max. resid. norm for Fia-block=  1.757D-04 for orbital     90a    alpha
          max. resid. fock norm         =  1.758D-04 for orbital     90a    alpha

 ITERATION  ENERGY          1e-ENERGY        2e-ENERGY     RMS[dD(SAO)]   TOL
  78  -1444.2077109339    -6220.0698207     2652.3855896    0.630D-05 0.215D-10
                            Exc = -127.613269377      Eck =  2779.99885893    
                         Ntotal = 178.99999255      Nspin =0.99999883601    
                             Na = 89.999995694         Nb = 88.999996858    
                          Ediel =-0.136952546133    
                            current damping = 0.100
 
          Norm of current diis error: 0.22198E-03
          max. resid. norm for Fia-block=  1.342D-04 for orbital     90a    alpha
          max. resid. fock norm         =  1.343D-04 for orbital     90a    alpha

 ITERATION  ENERGY          1e-ENERGY        2e-ENERGY     RMS[dD(SAO)]   TOL
  79  -1444.2077111782    -6220.0694318     2652.3852004    0.462D-05 0.214D-10
                            Exc = -127.613271978      Eck =  2779.99847243    
                         Ntotal = 178.99999255      Nspin =0.99999883536    
                             Na = 89.999995693         Nb = 88.999996858    
                          Ediel =-0.136952783759    
                            current damping = 0.150
 
          Norm of current diis error: 0.21560E-03
          max. resid. norm for Fia-block=  5.686D-05 for orbital     90a    alpha
          max. resid. fock norm         =  5.687D-05 for orbital     90a    alpha

 ENERGY & DENSITY CONVERGED !


 ITERATION  ENERGY          1e-ENERGY        2e-ENERGY     RMS[dD(SAO)]   TOL
  80  -1444.2077112147    -6220.0695074     2652.3852761    0.197D-05 0.215D-10
                            Exc = -127.613267145      Eck =  2779.99854320    
                         Ntotal = 178.99999255      Nspin =0.99999883504    
                             Na = 89.999995693         Nb = 88.999996858    
                          Ediel =-0.136953413292    
                            current damping = 0.200
 
          Norm of current diis error: 0.26559E-03
          max. resid. norm for Fia-block=  3.301D-05 for orbital     90a    alpha
          max. resid. fock norm         =  3.372D-05 for orbital     90a    alpha

 End of SCF iterations
 COSMO: write data to file cosmo_transfer.tmp

   convergence criteria satisfied after    80 iterations


                  ------------------------------------------ 
                 |  total energy      =  -1444.20771121468  |
                  ------------------------------------------ 
                 :  kinetic energy    =   1433.67882116594  :
                 :  potential energy  =  -2877.88653238062  :
                 :  virial theorem    =      1.99270957358  :
                 :  wavefunction norm =      1.00000000000  :
                  .......................................... 


 <geterg> : there is no data group $energy 


 <skperg> : $end is missing 


 orbitals $uhfmo_beta  will be written to file beta

 orbitals $uhfmo_alpha  will be written to file alpha
 
 alpha: 

    irrep                 86a         87a         88a         89a         90a   
 eigenvalues H         -0.24557    -0.24001    -0.22951    -0.22414    -0.03726
            eV          -6.6824     -6.5309     -6.2452     -6.0993     -1.0139
 occupation              1.0000      1.0000      1.0000      1.0000      1.0000 

    irrep                 91a         92a         93a         94a         95a   
 eigenvalues H         -0.00243     0.01783     0.03471     0.03774     0.05764
            eV          -0.0660      0.4851      0.9446      1.0269      1.5685
 
 beta:  

    irrep                 85a         86a         87a         88a         89a   
 eigenvalues H         -0.25936    -0.24453    -0.23409    -0.21850    -0.19308
            eV          -7.0576     -6.6541     -6.3699     -5.9457     -5.2539
 occupation              1.0000      1.0000      1.0000      1.0000      1.0000 

    irrep                 90a         91a         92a         93a         94a   
 eigenvalues H         -0.00186     0.01799     0.03601     0.03969     0.05481
            eV          -0.0507      0.4896      0.9800      1.0801      1.4914
 
 ==============================================================================
                                  COSMO RESULTS
 ==============================================================================
  PARAMETER:
    nppa:      1082
    nspa:        92
    nsph:        32
    nps:       1378
    npspher:    557
    disex:   10.0000    
    disex2:  4162.58    
    rsolv [A]: 1.3000
    routf:     0.8500
    phsran:    0.0    
    ampran:   0.10E-04
    cavity:  closed
    epsilon:    80.000
    refind:     1.300
    fepsi:      0.9813665
  CAVITY VOLUME/AREA [a.u.]:
    surface: V1.0, A matrix: V1.0
    area:  1187.81
    volume:  2589.30
  SCREENING CHARGE:
    cosmo      :   0.965519
    correction :   0.032786
    total      :   0.998305
  ENERGIES [a.u.]:
    Total energy            =   -1444.2077112146790
    Total energy + OC corr. =    -1444.2116131442
    Dielectric energy       =       -0.1369534133
    Diel. energy + OC corr. =       -0.1408553428
  ELEMENT RADIUS [A]: ATOM LIST
    c  2.00: 1,5,7,10,11,15,16,19,23,31-34,36,37
    n  1.83: 2,6,12
    h  1.30: 3,4,8,13,18,20-22,24-26,29,30,35,38-42
    o  1.72: 9,14,27,28
    s  2.16: 17
 ==============================================================================

                                             _ _ _ 
  IRREP     alpha occ.     beta occ.      tr(D*D-D)


 a         90.00000000    89.00000000    -0.25601442

   -------------------------------------------------

   sum     90.00000000    89.00000000    -0.25601442

 <S*S>     0.76202884

 
 
 
 ==============================================================================
                           electrostatic moments
 ==============================================================================

 reference point for electrostatic moments:    0.00000   0.00000   0.00000

 
              nuc           elec       ->  total
 ------------------------------------------------------------------------------
                          charge      
 ------------------------------------------------------------------------------
         178.000000    -179.000000      -1.000000
 a-b                                     1.000000
 
 ------------------------------------------------------------------------------
                       dipole moment  
 ------------------------------------------------------------------------------
   x   -2345.120935    2355.110659       9.989725
   y   -2671.620616    2674.526615       2.905999
   z    -525.901372     528.050523       2.149151
 
   | dipole moment | =    10.6235 a.u. =    27.0022 debye 
 
 ------------------------------------------------------------------------------
                     quadrupole moment
 ------------------------------------------------------------------------------
  xx   32495.895361  -32705.008451    -209.113090
  yy   48828.914352  -48877.291986     -48.377634
  zz    2519.053954   -2641.050601    -121.996647
  xy   37654.062185  -37669.994650     -15.932465
  xz    7571.002496   -7598.841446     -27.838950
  yz   10002.457089  -10016.468539     -14.011450
 
     1/3  trace=    -126.495790
     anisotropy=     151.980177
 
 ==============================================================================
 


    ------------------------------------------------------------------------
         total  cpu-time : 19 minutes and 37 seconds
         total wall-time : 19 minutes and 37 seconds
    ------------------------------------------------------------------------

   ****  ridft : all done  ****


    2019-08-15 13:34:02.401 

