 operating system is UNIX !

 ridft (yamuna) : TURBOMOLE V7.2 ( 21454 ) 4 Oct 2017 at 12:48:15
 Copyright (C) 2017 TURBOMOLE GmbH, Karlsruhe


    2019-08-15 13:27:31.519 



                                  r i d f t

                        DFT program with RI approximation 
                                for coulomb part 




                                                 
                                 References:     
                                                 
          TURBOMOLE:                             
              R. Ahlrichs, M. Baer, M. Haeser, H. Horn, and
              C. Koelmel
              Electronic structure calculations on workstation
              computers: the program system TURBOMOLE
              Chem. Phys. Lett. 162: 165 (1989)
          Density Functional:                              
              O. Treutler and R. Ahlrichs                      
              Efficient Molecular Numerical Integration Schemes
              J. Chem. Phys. 102: 346 (1995)                   
          Parallel Version:                                
              Performance of parallel TURBOMOLE for Density    
              Functional Calculations                          
              M. v. Arnim and R. Ahlrichs                      
              J. Comp. Chem. 19: 1746 (1998)                   
          RI-J Method:                                     
              Auxiliary Basis Sets to approximate Coulomb      
              Potentials                                       
              Chem. Phys. Lett. 240: 283 (1995)                
              K. Eichkorn, O. Treutler, H. Oehm, M. Haeser     
              and R. Ahlrichs                                  
              Chem. Phys. Lett. 242: 652 (1995)                
                                                           
              Auxiliary Basis Sets for Main Row Atoms and their
              Use to approximate Coulomb Potentials            
              K. Eichkorn, F. Weigend, O. Treutler and         
              R. Ahlrichs                                      
              Theo. Chem. Acc. 97: 119 (1997)                   
                                                           
              Accurate Coulomb-fitting basis sets for H to Rn 
              F. Weigend                                        
              Phys. Chem. Chem. Phys. 8: 1057 (2006)            
                                                           
          Multipole accelerated RI-J (MARI-J):             
              Fast evaluation of the Coulomb potential for     
              electron densities using multipole accelerated   
              resolution of identity approximation             
              M. Sierka, A. Hogekamp and R. Ahlrichs           
              J. Chem. Phys. 118: 9136 (2003)                  
          RI-JK Method:                                     
              A fully direct RI-HF algorithm: Implementation,
              optimised auxiliary basis sets, demonstration of
              accuracy and efficiency                         
              F. Weigend                                      
              Phys. Chem. Chem. Phys. 4: 4285 (2002)           
          Two-component HF and DFT with spin-orbit coupling:  
              Self-consistent treatment of spin-orbit         
              interactions with efficient Hartree-Fock and    
              density functional methods                      
              M. K. Armbruster, F. Weigend, C. van Wüllen and 
              W. Klopper                                      
              Phys. Chem. Chem. Phys. 10: 1748 (2008)         
          Relativistic all-electron 2c calculations           
              An efficient implementation of two-component    
              relativistic exact-decoupling methods for large 
              molecules                                       
              D. Peng, N. Middendorf, F. Weigend, M. Reiher   
              J. Chem. Phys. 138, 184105 (2013)               
                                         




              +--------------------------------------------------+
              |      general information about current run       |
              +--------------------------------------------------+

 

 DENSITY CONVERGENCE CHECK SWITCHED ON !
 SCF CONVERGENCE IF RMS(delta[D]) <     0.1000000000E-06

 PBE0 hybrid functional
 exchange:    3/4 (LDA+PBE) + 1/4 HF
 correlation: LDA (PW) + PBE
 A Hybrid-DFT calculation using the RI-J approximation will be carried out.
 Allocatable memory for RI due to $ricore (MB):                   500


              +--------------------------------------------------+
              | Atomic coordinate, charge and isotop information |
              +--------------------------------------------------+

                    atomic coordinates            atom    charge  isotop
        -12.82965307    6.72111335   -0.00610382    o      8.000     0
        -10.79481487    5.56630171   -0.00387394    c      6.000     0
         -8.36449478    6.81949249   -0.00914627    c      6.000     0
         -6.15449786    5.45862511   -0.00644397    c      6.000     0
         -6.12237252    2.73932810    0.00175745    c      6.000     0
         -8.46336525    1.42717787    0.00716206    c      6.000     0
        -10.66030416    2.77646122    0.00444086    c      6.000     0
         -3.03516473    6.52838018   -0.01165961    s     16.000     0
         -2.00511281    3.34574122   -0.00272121    c      6.000     0
         -3.83886526    1.66250546    0.00355269    n      7.000     0
          0.55161106    2.75694035   -0.08001100    c      6.000     0
          1.70288891    2.13954793   -3.18110828    s     16.000     0
          2.12686787    2.46688629    1.79943502    n      7.000     0
          4.48798618    1.70971082    1.05783089    c      6.000     0
          4.73393404    1.37662769   -1.82504081    c      6.000     0
          5.27966805   -0.58226242   -2.24166873    h      1.000     0
          6.22116740    2.63949387   -2.53357472    h      1.000     0
          6.27332384    1.31362422    2.44415288    o      8.000     0
         -8.39508945    8.87965302   -0.01532568    h      1.000     0
        -13.79044653    1.03997298    0.01154623    h      1.000     0
         -8.45423788   -0.63247244    0.01334147    br    35.000     0
 
       center of nuclear mass  :   -4.18019417    2.54102749   -0.15888471
       center of nuclear charge:   -4.03156920    2.64328729   -0.17644302

              +--------------------------------------------------+
              |               basis set information              |
              +--------------------------------------------------+

              we will work with the 1s 3p 5d 7f 9g ... basis set
              ...i.e. with spherical basis functions...

   type   atoms  prim   cont   basis
   ---------------------------------------------------------------------------
    o        2     24     14   def2-SVP   [3s2p1d|7s4p1d]
    c       10     24     14   def2-SVP   [3s2p1d|7s4p1d]
    s        2     36     18   def2-SVP   [4s3p1d|10s7p1d]
    n        2     24     14   def2-SVP   [3s2p1d|7s4p1d]
    h        4      7      5   def2-SVP   [2s1p|4s1p]
    br       1     74     32   def2-SVP   [5s4p3d|14s10p6d]
   ---------------------------------------------------------------------------
   total:   21    510    284
   ---------------------------------------------------------------------------

   total number of primitive shells          :   89
   total number of contracted shells         :  124
   total number of cartesian basis functions :  303
   total number of SCF-basis functions       :  284


 integral neglect threshold       :  0.11E-09
 integral storage threshold THIZE :  0.10E-04
 integral storage threshold THIME :         5

 RI-J AUXILIARY BASIS SET information:

              we will work with the 1s 3p 5d 7f 9g ... basis set
              ...i.e. with spherical basis functions...

   type   atoms  prim   cont   basis
   ---------------------------------------------------------------------------
    o        2     70     49   def2-SVP   [6s4p3d1f1g|12s5p4d2f1g]
    c       10     70     49   def2-SVP   [6s4p3d1f1g|12s5p4d2f1g]
    s        2     77     51   def2-SVP   [8s4p3d1f1g|14s5p5d2f1g]
    n        2     70     49   def2-SVP   [6s4p3d1f1g|12s5p4d2f1g]
    h        4     16     11   def2-SVP   [3s1p1d|5s2p1d]
    br       1     89     58   def2-SVP   [8s4p3d2f1g|19s5p5d3f1g]
   ---------------------------------------------------------------------------
   total:   21   1287    890
   ---------------------------------------------------------------------------

   total number of primitive shells          :  140
   total number of contracted shells         :  282
   total number of cartesian basis functions : 1101
   total number of SCF-basis functions       :  890


 symmetry group of the molecule :   c1 

 the group has the following generators :
   c1(z)

    1 symmetry operations found

 there are 1 real representations :   a   

 maximum number of shells which are related by symmetry :  1

 ==============================================================================
                      COSMO switched on
 ==============================================================================
 COSMO stati: segments per atom: H   32 other atoms   92
 COSMO statistics: nps    914 npspher:    441
 COSMO surface:
   number of segments:  914
   area (bohr**2):      932.132010
   volume (bohr**3):   1882.347857
 COSMO: check number of disjunct cavities:

       ... OK contiguous cavity found

    mo occupation :
   irrep   mo's   occupied
    a      284       81
 
 number of basis functions   :                    284
 number of occupied orbitals :                     81
 
  
           ------------------
           density functional
           ------------------
 PBE0 hybrid functional
 exchange:    3/4 (LDA+PBE) + 1/4 HF
 correlation: LDA (PW) + PBE

 spherical integration : Lebedev's spherical grid
 spherical gridsize    :                     5
    i.e. gridpoints    :                   590
 value for diffuse not defined
 radial integration    : Chebyshev 2nd kind (scaling 3)
 radial gridsize       :                     8
 integration cells     :                    21
 partition function    : becke
 partition sharpness   :                     3
  

 biggest AO integral is expected to be    21.668154127
  
           ------------------------
               RI-J - INFORMATION
           ------------------------
 Contributions to RI integral batches: 
  neglected integral batches:                  2401
  direct contribution:                            0
  memory contribution:                  5349
 Memory core needed for (P|Q) and Cholesky      7 MByte
 Memory core minimum needed except of (P|Q)     1 MByte
 Total minimum memory core needed (sum)         7 MByte
  
 ****************************************
 Memory allocated for RI-J   271 MByte
 ****************************************
                                            

          ------------------------
          nuclear repulsion energy  :   1809.59358969    
          ------------------------


         -----------------
         -S,T+V- integrals
         -----------------

 1e-integrals will be neglected if expon. factor < 0.110296E-10
 
   Difference densities algorithm switched on.
   The maximal number of linear combinations of
   difference densities is                    20 .

 DIIS switched on: error vector is FDS-SDF
 Max. Iterations for DIIS is     :   4
 DIIS matrix (see manual) 
    Scaling factor of diagonals  :  1.200
    threshold for scaling factor :  0.000

 scf convergence criterion : increment of total energy < .1000000D-05
                  and increment of one-electron energy < .1000000D-02

  MOs are in ASCII format !


 automatic virtual orbital shift switched on 
      shift if e(lumo)-e(homo) < 0.10000000    


 reading orbital data $scfmo  from file mos
 orbital characterization : expanded
 mo provided and orthogonalized by Cholesky decomposition

 DSCF restart information will be dumped onto file mos


 Starting SCF iterations

          Overall gridpoints after grid construction =        372186

 ITERATION  ENERGY          1e-ENERGY        2e-ENERGY     RMS[dD(SAO)]   TOL
   1  -4004.4375895443    -9108.2114556     3294.1802764    0.000D+00 0.110D-09
                            Exc = -172.743256708     Coul =  3522.56516372    
                            exK = -55.6416306246    
                              N = 162.00000450    
                          Ediel =-0.714763079960    
                            current damping = 0.700
 
          max. resid. norm for Fia-block=  2.222D+00 for orbital      1a         
          max. resid. fock norm         =  2.233D+00 for orbital      1a         

 ITERATION  ENERGY          1e-ENERGY        2e-ENERGY     RMS[dD(SAO)]   TOL
   2  -4009.0648806320    -9149.5422609     3330.8837906    0.144D-01 0.699D-10
                            Exc = -172.971742027      Eck =  3503.85553260    
                              N = 162.00000321    
                          Ediel =-0.407966493291    
                            current damping = 0.650
 
          Norm of current diis error:  3.5068    
          max. resid. norm for Fia-block=  8.850D-01 for orbital      1a         
          max. resid. fock norm         =  9.277D-01 for orbital      1a         

 ITERATION  ENERGY          1e-ENERGY        2e-ENERGY     RMS[dD(SAO)]   TOL
   3  -4010.0637174641    -9170.5471737     3350.8898665    0.118D-01 0.602D-10
                            Exc = -173.135981115      Eck =  3524.02584761    
                              N = 162.00000280    
                          Ediel =-0.129047364562    
                            current damping = 0.550
 
          Norm of current diis error:  1.6157    
          max. resid. norm for Fia-block=  3.493D-01 for orbital      1a         
          max. resid. fock norm         =  3.665D-01 for orbital      1a         
          irrep a   : virtual orbitals shifted by    0.06810

 ITERATION  ENERGY          1e-ENERGY        2e-ENERGY     RMS[dD(SAO)]   TOL
   4  -4010.1829529910    -9164.1974304     3344.4208877    0.800D-02 0.560D-10
                            Exc = -173.084154722      Eck =  3517.50504243    
                              N = 162.00000310    
                          Ediel =-0.155066204238    
                            current damping = 0.600
 
          Norm of current diis error:  1.0442    
          max. resid. norm for Fia-block=  1.248D-01 for orbital      1a         
          max. resid. fock norm         =  1.307D-01 for orbital      1a         
          irrep a   : virtual orbitals shifted by    0.05529

 ITERATION  ENERGY          1e-ENERGY        2e-ENERGY     RMS[dD(SAO)]   TOL
   5  -4010.4474102029    -9174.9089663     3354.8679664    0.658D-02 0.509D-10
                            Exc = -173.167202881      Eck =  3528.03516924    
                              N = 162.00000288    
                          Ediel =-0.104512296609    
                            current damping = 0.650
 
          Norm of current diis error: 0.36947    
          max. resid. norm for Fia-block=  4.665D-02 for orbital      1a         
          max. resid. fock norm         =  4.904D-02 for orbital      1a         
          mo-orthogonalization: Cholesky decomposition

 ITERATION  ENERGY          1e-ENERGY        2e-ENERGY     RMS[dD(SAO)]   TOL
   6  -4010.4819290563    -9174.7495820     3354.6740633    0.286D-02 0.470D-10
                            Exc = -173.161867155      Eck =  3527.83593041    
                              N = 162.00000297    
                          Ediel =-0.101270817067    
                            current damping = 0.700
 
          Norm of current diis error: 0.14479    
          max. resid. norm for Fia-block=  1.841D-02 for orbital      1a         
          max. resid. fock norm         =  1.933D-02 for orbital      1a         

 ITERATION  ENERGY          1e-ENERGY        2e-ENERGY     RMS[dD(SAO)]   TOL
   7  -4010.4885241120    -9174.4448110     3354.3626972    0.137D-02 0.442D-10
                            Exc = -173.168469823      Eck =  3527.53116699    
                              N = 162.00000301    
                          Ediel =-0.994149244573E-01
                            current damping = 0.550
 
          Norm of current diis error: 0.61586E-01
          max. resid. norm for Fia-block=  7.605D-03 for orbital      1a         
          max. resid. fock norm         =  7.986D-03 for orbital      1a         

 ITERATION  ENERGY          1e-ENERGY        2e-ENERGY     RMS[dD(SAO)]   TOL
   8  -4010.4900017146    -9174.6460593     3354.5624679    0.731D-03 0.421D-10
                            Exc = -173.165194554      Eck =  3527.72766243    
                              N = 162.00000304    
                          Ediel =-0.975239850325E-01
                            current damping = 0.600
 
          Norm of current diis error: 0.34005E-01
          max. resid. norm for Fia-block=  2.711D-03 for orbital      1a         
          max. resid. fock norm         =  4.634D-03 for orbital     82a         

 ITERATION  ENERGY          1e-ENERGY        2e-ENERGY     RMS[dD(SAO)]   TOL
   9  -4010.4902941029    -9174.7908483     3354.7069645    0.228D-03 0.409D-10
                            Exc = -173.170717205      Eck =  3527.87768174    
                              N = 162.00000304    
                          Ediel =-0.973995975971E-01
                            current damping = 0.450
 
          Norm of current diis error: 0.11817E-01
          max. resid. norm for Fia-block=  1.286D-03 for orbital     81a         
          max. resid. fock norm         =  1.431D-03 for orbital     83a         

 ITERATION  ENERGY          1e-ENERGY        2e-ENERGY     RMS[dD(SAO)]   TOL
  10  -4010.4903584088    -9174.7331696     3354.6492215    0.143D-03 0.398D-10
                            Exc = -173.168447167      Eck =  3527.81766864    
                              N = 162.00000305    
                          Ediel =-0.970142280179E-01
                            current damping = 0.500
 
          Norm of current diis error: 0.60286E-02
          max. resid. norm for Fia-block=  5.480D-04 for orbital     78a         
          max. resid. fock norm         =  6.994D-04 for orbital     47a         
          mo-orthogonalization: Cholesky decomposition

 ITERATION  ENERGY          1e-ENERGY        2e-ENERGY     RMS[dD(SAO)]   TOL
  11  -4010.4903690918    -9174.7613307     3354.6773719    0.575D-04 0.390D-10
                            Exc = -173.169069326      Eck =  3527.84644121    
                              N = 162.00000305    
                          Ediel =-0.969573151204E-01
                            current damping = 0.550
 
          Norm of current diis error: 0.31626E-02
          max. resid. norm for Fia-block=  2.847D-04 for orbital     81a         
          max. resid. fock norm         =  3.421D-04 for orbital    260a         

 ITERATION  ENERGY          1e-ENERGY        2e-ENERGY     RMS[dD(SAO)]   TOL
  12  -4010.4903716738    -9174.7681782     3354.6842169    0.242D-04 0.384D-10
                            Exc = -173.169223084      Eck =  3527.85343996    
                              N = 162.00000305    
                          Ediel =-0.968984238499E-01
                            current damping = 0.400
 
          Norm of current diis error: 0.14365E-02
          max. resid. norm for Fia-block=  1.100D-04 for orbital     70a         
          max. resid. fock norm         =  1.799D-04 for orbital     82a         

 ITERATION  ENERGY          1e-ENERGY        2e-ENERGY     RMS[dD(SAO)]   TOL
  13  -4010.4903721694    -9174.7643961     3354.6804342    0.119D-04 0.378D-10
                            Exc = -173.169293520      Eck =  3527.84972777    
                              N = 162.00000306    
                          Ediel =-0.968902737004E-01
                            current damping = 0.450
 
          Norm of current diis error: 0.97582E-03
          max. resid. norm for Fia-block=  6.363D-05 for orbital     81a         
          max. resid. fock norm         =  6.959D-05 for orbital     84a         

 ITERATION  ENERGY          1e-ENERGY        2e-ENERGY     RMS[dD(SAO)]   TOL
  14  -4010.4903723642    -9174.7656809     3354.6817188    0.571D-05 0.373D-10
                            Exc = -173.169136629      Eck =  3527.85085542    
                              N = 162.00000306    
                          Ediel =-0.968725268949E-01
                            current damping = 0.500
 
          Norm of current diis error: 0.34025E-03
          max. resid. norm for Fia-block=  2.810D-05 for orbital     79a         
          max. resid. fock norm         =  3.758D-05 for orbital     67a         

 ITERATION  ENERGY          1e-ENERGY        2e-ENERGY     RMS[dD(SAO)]   TOL
  15  -4010.4903723846    -9174.7677571     3354.6837950    0.273D-05 0.369D-10
                            Exc = -173.169217921      Eck =  3527.85301290    
                              N = 162.00000306    
                          Ediel =-0.968719228030E-01
                            current damping = 0.350
 
          Norm of current diis error: 0.15944E-03
          max. resid. norm for Fia-block=  1.779D-05 for orbital     81a         
          max. resid. fock norm         =  1.902D-05 for orbital     84a         
          mo-orthogonalization: Cholesky decomposition

 ITERATION  ENERGY          1e-ENERGY        2e-ENERGY     RMS[dD(SAO)]   TOL
  16  -4010.4903724003    -9174.7672496     3354.6832875    0.164D-05 0.364D-10
                            Exc = -173.169201248      Eck =  3527.85248874    
                              N = 162.00000306    
                          Ediel =-0.968678419761E-01
                            current damping = 0.400
 
          Norm of current diis error: 0.94689E-04
          max. resid. norm for Fia-block=  6.231D-06 for orbital     74a         
          max. resid. fock norm         =  1.052D-05 for orbital     46a         

 ENERGY & DENSITY CONVERGED !


 ITERATION  ENERGY          1e-ENERGY        2e-ENERGY     RMS[dD(SAO)]   TOL
  17  -4010.4903723864    -9174.7673649     3354.6834028    0.594D-06 0.361D-10
                            Exc = -173.169200088      Eck =  3527.85260294    
                              N = 162.00000306    
                          Ediel =-0.968679456192E-01
                            current damping = 0.450
 
          Norm of current diis error: 0.50053E-04
          max. resid. norm for Fia-block=  4.308D-06 for orbital     81a         
          max. resid. fock norm         =  5.439D-06 for orbital     79a         

 End of SCF iterations
 COSMO: write data to file cosmo_transfer.tmp

   convergence criteria satisfied after    17 iterations


                  ------------------------------------------ 
                 |  total energy      =  -4010.49037238642  |
                  ------------------------------------------ 
                 :  kinetic energy    =   4007.47375477311  :
                 :  potential energy  =  -8017.96412715954  :
                 :  virial theorem    =      1.99924781826  :
                 :  wavefunction norm =      1.00000000000  :
                  .......................................... 


 <geterg> : there is no data group $energy 


 <skperg> : $end is missing 


 orbitals $scfmo  will be written to file mos

    irrep                 77a         78a         79a         80a         81a   
 eigenvalues H         -0.27230    -0.25386    -0.21943    -0.20435    -0.17778
            eV          -7.4097     -6.9080     -5.9711     -5.5606     -4.8376
 occupation              2.0000      2.0000      2.0000      2.0000      2.0000 

    irrep                 82a         83a         84a         85a         86a   
 eigenvalues H         -0.08448    -0.04032    -0.03695     0.00397     0.01624
            eV          -2.2988     -1.0972     -1.0054      0.1079      0.4420
 
 ==============================================================================
                                  COSMO RESULTS
 ==============================================================================
  PARAMETER:
    nppa:      1082
    nspa:        92
    nsph:        32
    nps:        914
    npspher:    441
    disex:   10.0000    
    disex2:  5044.12    
    rsolv [A]: 1.3000
    routf:     0.8500
    phsran:    0.0    
    ampran:   0.10E-04
    cavity:  closed
    epsilon:    80.000
    refind:     1.300
    fepsi:      0.9813665
  CAVITY VOLUME/AREA [a.u.]:
    surface: V1.0, A matrix: V1.0
    area:   932.13
    volume:  1882.35
  SCREENING CHARGE:
    cosmo      :   0.975228
    correction :   0.023349
    total      :   0.998577
  ENERGIES [a.u.]:
    Total energy            =   -4010.4903723864236
    Total energy + OC corr. =    -4010.4929583863
    Dielectric energy       =       -0.0968679456
    Diel. energy + OC corr. =       -0.0994539455
  ELEMENT RADIUS [A]: ATOM LIST
    o  1.72: 1,18
    c  2.00: 2-7,9,11,14,15
    s  2.16: 8,12
    n  1.83: 10,13
    h  1.30: 16,17,19,20
    br 2.16: 21
 ==============================================================================
 
 
 
 ==============================================================================
                           electrostatic moments
 ==============================================================================

 reference point for electrostatic moments:    0.00000   0.00000   0.00000

 
              nuc           elec       ->  total
 ------------------------------------------------------------------------------
                          charge      
 ------------------------------------------------------------------------------
         161.000000    -162.000000      -1.000000
 
 ------------------------------------------------------------------------------
                       dipole moment  
 ------------------------------------------------------------------------------
   x    -649.082641     657.647784       8.565143
   y     425.569254    -430.271898      -4.702644
   z     -28.407327      26.620003      -1.787324
 
   | dipole moment | =     9.9333 a.u. =    25.2480 debye 
 
 ------------------------------------------------------------------------------
                     quadrupole moment
 ------------------------------------------------------------------------------
  xx    7753.089157   -7958.821627    -205.732471
  yy    2182.422202   -2301.315562    -118.893360
  zz     270.559690    -366.591118     -96.031428
  xy   -1980.008926    2031.842518      51.833592
  xz       8.953498     -18.570220      -9.616722
  yz     -65.597330      62.747145      -2.850184
 
     1/3  trace=    -140.219086
     anisotropy=     135.687094
 
 ==============================================================================
 


    ------------------------------------------------------------------------
         total  cpu-time :  1 minutes and 53 seconds
         total wall-time :  1 minutes and 54 seconds
    ------------------------------------------------------------------------

   ****  ridft : all done  ****


    2019-08-15 13:29:25.038 

