 operating system is UNIX !

 ridft (yamuna) : TURBOMOLE V7.2 ( 21454 ) 4 Oct 2017 at 12:48:15
 Copyright (C) 2017 TURBOMOLE GmbH, Karlsruhe


    2019-08-21 12:29:25.446 



                                  r i d f t

                        DFT program with RI approximation 
                                for coulomb part 




                                                 
                                 References:     
                                                 
          TURBOMOLE:                             
              R. Ahlrichs, M. Baer, M. Haeser, H. Horn, and
              C. Koelmel
              Electronic structure calculations on workstation
              computers: the program system TURBOMOLE
              Chem. Phys. Lett. 162: 165 (1989)
          Density Functional:                              
              O. Treutler and R. Ahlrichs                      
              Efficient Molecular Numerical Integration Schemes
              J. Chem. Phys. 102: 346 (1995)                   
          Parallel Version:                                
              Performance of parallel TURBOMOLE for Density    
              Functional Calculations                          
              M. v. Arnim and R. Ahlrichs                      
              J. Comp. Chem. 19: 1746 (1998)                   
          RI-J Method:                                     
              Auxiliary Basis Sets to approximate Coulomb      
              Potentials                                       
              Chem. Phys. Lett. 240: 283 (1995)                
              K. Eichkorn, O. Treutler, H. Oehm, M. Haeser     
              and R. Ahlrichs                                  
              Chem. Phys. Lett. 242: 652 (1995)                
                                                           
              Auxiliary Basis Sets for Main Row Atoms and their
              Use to approximate Coulomb Potentials            
              K. Eichkorn, F. Weigend, O. Treutler and         
              R. Ahlrichs                                      
              Theo. Chem. Acc. 97: 119 (1997)                   
                                                           
              Accurate Coulomb-fitting basis sets for H to Rn 
              F. Weigend                                        
              Phys. Chem. Chem. Phys. 8: 1057 (2006)            
                                                           
          Multipole accelerated RI-J (MARI-J):             
              Fast evaluation of the Coulomb potential for     
              electron densities using multipole accelerated   
              resolution of identity approximation             
              M. Sierka, A. Hogekamp and R. Ahlrichs           
              J. Chem. Phys. 118: 9136 (2003)                  
          RI-JK Method:                                     
              A fully direct RI-HF algorithm: Implementation,
              optimised auxiliary basis sets, demonstration of
              accuracy and efficiency                         
              F. Weigend                                      
              Phys. Chem. Chem. Phys. 4: 4285 (2002)           
          Two-component HF and DFT with spin-orbit coupling:  
              Self-consistent treatment of spin-orbit         
              interactions with efficient Hartree-Fock and    
              density functional methods                      
              M. K. Armbruster, F. Weigend, C. van Wüllen and 
              W. Klopper                                      
              Phys. Chem. Chem. Phys. 10: 1748 (2008)         
          Relativistic all-electron 2c calculations           
              An efficient implementation of two-component    
              relativistic exact-decoupling methods for large 
              molecules                                       
              D. Peng, N. Middendorf, F. Weigend, M. Reiher   
              J. Chem. Phys. 138, 184105 (2013)               
                                         




              +--------------------------------------------------+
              |      general information about current run       |
              +--------------------------------------------------+

 

 DENSITY CONVERGENCE CHECK SWITCHED ON !
 SCF CONVERGENCE IF RMS(delta[D]) <     0.1000000000E-06

 PBE0 hybrid functional
 exchange:    3/4 (LDA+PBE) + 1/4 HF
 correlation: LDA (PW) + PBE
 A Hybrid-DFT calculation using the RI-J approximation will be carried out.
 Allocatable memory for RI due to $ricore (MB):                   500


              +--------------------------------------------------+
              | Atomic coordinate, charge and isotop information |
              +--------------------------------------------------+

                    atomic coordinates            atom    charge  isotop
         -3.94043804   -1.18568976   -0.23521421    c      6.000     0
         -3.73171778   -3.83244019   -0.53199570    c      6.000     0
         -1.75402490    0.31953379    0.05782562    c      6.000     0
          0.59305275   -0.88941850    0.05939409    c      6.000     0
          0.77512787   -3.47182375   -0.22474513    c      6.000     0
         -1.35194787   -4.99836342   -0.53471691    c      6.000     0
          3.05249352    0.00538572    0.31501735    c      6.000     0
          4.59783596   -2.12019713    0.17020763    c      6.000     0
         -6.23632301   -0.10280110   -0.23143476    o      8.000     0
          3.19068919   -4.22312217   -0.17079345    n      7.000     0
          3.86547260   -6.06947909   -0.37146347    h      1.000     0
          4.02825361    2.67645692    0.55559838    c      6.000     0
          4.95807445    3.34133816    3.22646171    c      6.000     0
          6.45692963    5.66241318    3.15300805    n      7.000     0
          7.14123726    6.06173121    4.96429165    h      1.000     0
          5.34994696    7.17854046    2.53981082    h      1.000     0
          6.63928821   -2.11845858    0.25613348    h      1.000     0
          6.17645648    1.81098124    3.98526234    h      1.000     0
          3.31268991    3.58611439    4.51931784    h      1.000     0
          5.64138053    2.82799406   -0.78181750    h      1.000     0
          2.58476740    4.07576132   -0.04242435    h      1.000     0
         -1.90769743    2.34515013    0.28997848    h      1.000     0
         -5.41349845   -4.97984410   -0.75866835    h      1.000     0
         -1.17282073   -7.02494352   -0.76573593    h      1.000     0
 
       center of nuclear mass  :    0.88252511   -0.54622993    0.49276870
       center of nuclear charge:    1.00236804   -0.47295842    0.53769577

              +--------------------------------------------------+
              |               basis set information              |
              +--------------------------------------------------+

              we will work with the 1s 3p 5d 7f 9g ... basis set
              ...i.e. with spherical basis functions...

   type   atoms  prim   cont   basis
   ---------------------------------------------------------------------------
    c       10     24     14   def2-SVP   [3s2p1d|7s4p1d]
    o        1     24     14   def2-SVP   [3s2p1d|7s4p1d]
    n        2     24     14   def2-SVP   [3s2p1d|7s4p1d]
    h       11      7      5   def2-SVP   [2s1p|4s1p]
   ---------------------------------------------------------------------------
   total:   24    389    237
   ---------------------------------------------------------------------------

   total number of primitive shells          :   41
   total number of contracted shells         :  111
   total number of cartesian basis functions :  250
   total number of SCF-basis functions       :  237


 integral neglect threshold       :  0.13E-09
 integral storage threshold THIZE :  0.10E-04
 integral storage threshold THIME :         5

 RI-J AUXILIARY BASIS SET information:

              we will work with the 1s 3p 5d 7f 9g ... basis set
              ...i.e. with spherical basis functions...

   type   atoms  prim   cont   basis
   ---------------------------------------------------------------------------
    c       10     70     49   def2-SVP   [6s4p3d1f1g|12s5p4d2f1g]
    o        1     70     49   def2-SVP   [6s4p3d1f1g|12s5p4d2f1g]
    n        2     70     49   def2-SVP   [6s4p3d1f1g|12s5p4d2f1g]
    h       11     16     11   def2-SVP   [3s1p1d|5s2p1d]
   ---------------------------------------------------------------------------
   total:   24   1086    758
   ---------------------------------------------------------------------------

   total number of primitive shells          :   80
   total number of contracted shells         :  250
   total number of cartesian basis functions :  925
   total number of SCF-basis functions       :  758


 symmetry group of the molecule :   c1 

 the group has the following generators :
   c1(z)

    1 symmetry operations found

 there are 1 real representations :   a   

 maximum number of shells which are related by symmetry :  1

 ==============================================================================
                      COSMO switched on
 ==============================================================================
 COSMO stati: segments per atom: H   32 other atoms   92
 COSMO statistics: nps    908 npspher:    378
 COSMO surface:
   number of segments:  908
   area (bohr**2):      756.135032
   volume (bohr**3):   1459.641207
 COSMO: check number of disjunct cavities:

       ... OK contiguous cavity found

    mo occupation :
   irrep   mo's   occupied
    a      237       47
 
 number of basis functions   :                    237
 number of occupied orbitals :                     47
 
  
           ------------------
           density functional
           ------------------
 PBE0 hybrid functional
 exchange:    3/4 (LDA+PBE) + 1/4 HF
 correlation: LDA (PW) + PBE

 spherical integration : Lebedev's spherical grid
 spherical gridsize    :                     5
    i.e. gridpoints    :                   590
 value for diffuse not defined
 radial integration    : Chebyshev 2nd kind (scaling 3)
 radial gridsize       :                     8
 integration cells     :                    24
 partition function    : becke
 partition sharpness   :                     3
  

 biggest AO integral is expected to be     4.776656448
  
           ------------------------
               RI-J - INFORMATION
           ------------------------
 Contributions to RI integral batches: 
  neglected integral batches:                  1158
  direct contribution:                            0
  memory contribution:                  5058
 Memory core needed for (P|Q) and Cholesky      5 MByte
 Memory core minimum needed except of (P|Q)     1 MByte
 Total minimum memory core needed (sum)         5 MByte
  
 ****************************************
 Memory allocated for RI-J   181 MByte
 ****************************************
                                            

          ------------------------
          nuclear repulsion energy  :   739.300754940    
          ------------------------


         -----------------
         -S,T+V- integrals
         -----------------

 1e-integrals will be neglected if expon. factor < 0.133678E-10
 
   Difference densities algorithm switched on.
   The maximal number of linear combinations of
   difference densities is                    20 .

 DIIS switched on: error vector is FDS-SDF
 Max. Iterations for DIIS is     :   4
 DIIS matrix (see manual) 
    Scaling factor of diagonals  :  1.200
    threshold for scaling factor :  0.000

 scf convergence criterion : increment of total energy < .1000000D-05
                  and increment of one-electron energy < .1000000D-02

  MOs are in ASCII format !


 automatic virtual orbital shift switched on 
      shift if e(lumo)-e(homo) < 0.10000000    


 reading orbital data $scfmo  from file mos
 orbital characterization : expanded
 mo provided and orthogonalized by Cholesky decomposition

 DSCF restart information will be dumped onto file mos


 Starting SCF iterations

          Overall gridpoints after grid construction =        376012

 ITERATION  ENERGY          1e-ENERGY        2e-ENERGY     RMS[dD(SAO)]   TOL
   1  -569.64340523726    -2242.2450016     933.30084146    0.000D+00 0.133D-09
                            Exc = -60.2673012711     Coul =  1012.63521024    
                            exK = -19.0670675028    
                              N = 93.999977767    
                          Ediel =-0.180137720140    
                            current damping = 0.700
 
          max. resid. norm for Fia-block=  2.860D-01 for orbital      2a         
          max. resid. fock norm         =  1.114D+00 for orbital     61a         

 ITERATION  ENERGY          1e-ENERGY        2e-ENERGY     RMS[dD(SAO)]   TOL
   2  -571.05413359052    -2251.1137488     940.75886026    0.111D-01 0.849D-10
                            Exc = -60.5960520819      Eck =  1001.35491234    
                              N = 93.999982552    
                          Ediel =-0.158003989496    
                            current damping = 0.650
 
          Norm of current diis error:  1.8193    
          max. resid. norm for Fia-block=  1.412D-01 for orbital     14a         
          max. resid. fock norm         =  2.324D-01 for orbital    236a         

 ITERATION  ENERGY          1e-ENERGY        2e-ENERGY     RMS[dD(SAO)]   TOL
   3  -571.33921318075    -2255.0270113     944.38704321    0.592D-02 0.665D-10
                            Exc = -60.9274118232      Eck =  1005.31445503    
                              N = 93.999985340    
                          Ediel =-0.148824618023    
                            current damping = 0.550
 
          Norm of current diis error: 0.90915    
          max. resid. norm for Fia-block=  6.815D-02 for orbital     14a         
          max. resid. fock norm         =  7.384D-02 for orbital     14a         

 ITERATION  ENERGY          1e-ENERGY        2e-ENERGY     RMS[dD(SAO)]   TOL
   4  -571.43630946061    -2256.2753826     945.53831823    0.432D-02 0.565D-10
                            Exc = -60.9787382046      Eck =  1006.51705644    
                              N = 93.999986716    
                          Ediel =-0.136646943087    
                            current damping = 0.450
 
          Norm of current diis error: 0.34901    
          max. resid. norm for Fia-block=  2.977D-02 for orbital     15a         
          max. resid. fock norm         =  5.118D-02 for orbital    235a         

 ITERATION  ENERGY          1e-ENERGY        2e-ENERGY     RMS[dD(SAO)]   TOL
   5  -571.45135404939    -2257.3510026     946.59889357    0.165D-02 0.530D-10
                            Exc = -61.0747878291      Eck =  1007.67368140    
                              N = 93.999987419    
                          Ediel =-0.134663044543    
                            current damping = 0.350
 
          Norm of current diis error: 0.14989    
          max. resid. norm for Fia-block=  1.385D-02 for orbital     46a         
          max. resid. fock norm         =  1.478D-02 for orbital     46a         
          mo-orthogonalization: Cholesky decomposition

 ITERATION  ENERGY          1e-ENERGY        2e-ENERGY     RMS[dD(SAO)]   TOL
   6  -571.45480467795    -2257.5417106     946.78615102    0.130D-02 0.500D-10
                            Exc = -61.0669589611      Eck =  1007.85310998    
                              N = 93.999987519    
                          Ediel =-0.131776175861    
                            current damping = 0.200
 
          Norm of current diis error: 0.60062E-01
          max. resid. norm for Fia-block=  5.442D-03 for orbital     46a         
          max. resid. fock norm         =  8.650D-03 for orbital     41a         

 ITERATION  ENERGY          1e-ENERGY        2e-ENERGY     RMS[dD(SAO)]   TOL
   7  -571.45535897743    -2257.5825172     946.82640328    0.373D-03 0.491D-10
                            Exc = -61.0795086323      Eck =  1007.90591191    
                              N = 93.999987591    
                          Ediel =-0.131387431857    
                            current damping = 0.050
 
          Norm of current diis error: 0.15270E-01
          max. resid. norm for Fia-block=  1.059D-03 for orbital     47a         
          max. resid. fock norm         =  1.546D-03 for orbital     21a         

 ITERATION  ENERGY          1e-ENERGY        2e-ENERGY     RMS[dD(SAO)]   TOL
   8  -571.45538921137    -2257.6522922     946.89614804    0.115D-03 0.482D-10
                            Exc = -61.0819604632      Eck =  1007.97810851    
                              N = 93.999987594    
                          Ediel =-0.131700246255    
                            current damping = 0.050
 
          Norm of current diis error: 0.93046E-02
          max. resid. norm for Fia-block=  5.302D-04 for orbital     47a         
          max. resid. fock norm         =  8.534D-04 for orbital    231a         

 ITERATION  ENERGY          1e-ENERGY        2e-ENERGY     RMS[dD(SAO)]   TOL
   9  -571.45539988303    -2257.6334818     946.87732696    0.491D-04 0.478D-10
                            Exc = -61.0806232601      Eck =  1007.95795022    
                              N = 93.999987591    
                          Ediel =-0.131346093783    
                            current damping = 0.100
 
          Norm of current diis error: 0.32614E-02
          max. resid. norm for Fia-block=  1.936D-04 for orbital     46a         
          max. resid. fock norm         =  3.574D-04 for orbital    214a         

 ITERATION  ENERGY          1e-ENERGY        2e-ENERGY     RMS[dD(SAO)]   TOL
  10  -571.45540139081    -2257.6285448     946.87238847    0.190D-04 0.475D-10
                            Exc = -61.0805280474      Eck =  1007.95291652    
                              N = 93.999987591    
                          Ediel =-0.131423930926    
                            current damping = 0.050
 
          Norm of current diis error: 0.10850E-02
          max. resid. norm for Fia-block=  6.139D-05 for orbital     45a         
          max. resid. fock norm         =  1.041D-04 for orbital     18a         
          mo-orthogonalization: Cholesky decomposition

 ITERATION  ENERGY          1e-ENERGY        2e-ENERGY     RMS[dD(SAO)]   TOL
  11  -571.45540146366    -2257.6335499     946.87739353    0.702D-05 0.472D-10
                            Exc = -61.0809693253      Eck =  1007.95836286    
                              N = 93.999987592    
                          Ediel =-0.131426614842    
                            current damping = 0.100
 
          Norm of current diis error: 0.73048E-03
          max. resid. norm for Fia-block=  5.187D-05 for orbital     46a         
          max. resid. fock norm         =  6.595D-05 for orbital     41a         

 ITERATION  ENERGY          1e-ENERGY        2e-ENERGY     RMS[dD(SAO)]   TOL
  12  -571.45540153006    -2257.6325260     946.87636950    0.411D-05 0.469D-10
                            Exc = -61.0807523277      Eck =  1007.95712182    
                              N = 93.999987592    
                          Ediel =-0.131417021245    
                            current damping = 0.150
 
          Norm of current diis error: 0.20168E-03
          max. resid. norm for Fia-block=  1.741D-05 for orbital     46a         
          max. resid. fock norm         =  2.506D-05 for orbital     41a         

 ITERATION  ENERGY          1e-ENERGY        2e-ENERGY     RMS[dD(SAO)]   TOL
  13  -571.45540153050    -2257.6317666     946.87561015    0.147D-05 0.465D-10
                            Exc = -61.0807513211      Eck =  1007.95636147    
                              N = 93.999987591    
                          Ediel =-0.131415561318    
                            current damping = 0.050
 
          Norm of current diis error: 0.94569E-04
          max. resid. norm for Fia-block=  6.664D-06 for orbital     47a         
          max. resid. fock norm         =  8.555D-06 for orbital     21a         

 ENERGY & DENSITY CONVERGED !


 ITERATION  ENERGY          1e-ENERGY        2e-ENERGY     RMS[dD(SAO)]   TOL
  14  -571.45540154914    -2257.6321225     946.87596597    0.545D-06 0.462D-10
                            Exc = -61.0807603595      Eck =  1007.95672633    
                              N = 93.999987591    
                          Ediel =-0.131417344805    
                            current damping = 0.100
 
          Norm of current diis error: 0.45230E-04
          max. resid. norm for Fia-block=  2.408D-06 for orbital     45a         
          max. resid. fock norm         =  4.488D-06 for orbital    194a         

 End of SCF iterations
 COSMO: write data to file cosmo_transfer.tmp

   convergence criteria satisfied after    14 iterations


                  ------------------------------------------ 
                 |  total energy      =   -571.45540154914  |
                  ------------------------------------------ 
                 :  kinetic energy    =    565.96697707380  :
                 :  potential energy  =  -1137.42237862294  :
                 :  virial theorem    =      1.99039570812  :
                 :  wavefunction norm =      1.00000000000  :
                  .......................................... 


 <geterg> : there is no data group $energy 


 <skperg> : $end is missing 


 orbitals $scfmo  will be written to file mos

    irrep                 43a         44a         45a         46a         47a   
 eigenvalues H         -0.26476    -0.23774    -0.19223    -0.18724    -0.15025
            eV          -7.2045     -6.4693     -5.2308     -5.0950     -4.0887
 occupation              2.0000      2.0000      2.0000      2.0000      2.0000 

    irrep                 48a         49a         50a         51a         52a   
 eigenvalues H          0.00852     0.07177     0.07864     0.09131     0.09249
            eV           0.2318      1.9528      2.1399      2.4848      2.5169
 
 ==============================================================================
                                  COSMO RESULTS
 ==============================================================================
  PARAMETER:
    nppa:      1082
    nspa:        92
    nsph:        32
    nps:        908
    npspher:    378
    disex:   10.0000    
    disex2:  4173.89    
    rsolv [A]: 1.3000
    routf:     0.8500
    phsran:    0.0    
    ampran:   0.10E-04
    cavity:  closed
    epsilon:    80.000
    refind:     1.300
    fepsi:      0.9813665
  CAVITY VOLUME/AREA [a.u.]:
    surface: V1.0, A matrix: V1.0
    area:   756.14
    volume:  1459.64
  SCREENING CHARGE:
    cosmo      :   0.973215
    correction :   0.025289
    total      :   0.998504
  ENERGIES [a.u.]:
    Total energy            =    -571.4554015491439
    Total energy + OC corr. =     -571.4584652933
    Dielectric energy       =       -0.1314173448
    Diel. energy + OC corr. =       -0.1344810889
  ELEMENT RADIUS [A]: ATOM LIST
    c  2.00: 1-8,12,13
    o  1.72: 9
    n  1.83: 10,14
    h  1.30: 11,15-24
 ==============================================================================
 
 
 
 ==============================================================================
                           electrostatic moments
 ==============================================================================

 reference point for electrostatic moments:    0.00000   0.00000   0.00000

 
              nuc           elec       ->  total
 ------------------------------------------------------------------------------
                          charge      
 ------------------------------------------------------------------------------
          93.000000     -94.000000      -1.000000
 
 ------------------------------------------------------------------------------
                       dipole moment  
 ------------------------------------------------------------------------------
   x      93.220228     -88.127097       5.093131
   y     -43.985133      43.806764      -0.178369
   z      50.005706     -49.469536       0.536170
 
   | dipole moment | =     5.1244 a.u. =    13.0249 debye 
 
 ------------------------------------------------------------------------------
                     quadrupole moment
 ------------------------------------------------------------------------------
  xx    1574.292474   -1664.550239     -90.257765
  yy    1060.450757   -1108.641606     -48.190850
  zz     208.858535    -267.494982     -58.636447
  xy     528.592934    -535.880970      -7.288036
  xz     379.307820    -378.429316       0.878505
  yz     316.998106    -313.187051       3.811055
 
     1/3  trace=     -65.695020
     anisotropy=      40.553125
 
 ==============================================================================
 


    ------------------------------------------------------------------------
         total  cpu-time :  1 minutes and 12 seconds
         total wall-time :  1 minutes and 12 seconds
    ------------------------------------------------------------------------

   ****  ridft : all done  ****


    2019-08-21 12:30:37.595 

