24
	Energy:      61.3041871
C         -2.08519       -0.62744       -0.12447
C         -1.97474       -2.02804       -0.28152
C         -0.92819        0.16909        0.03060
C          0.31383       -0.47066        0.03143
C          0.41018       -1.83721       -0.11893
C         -0.71542       -2.64502       -0.28296
C          1.61531        0.00285        0.16670
C          2.43307       -1.12196        0.09007
O         -3.30012       -0.05440       -0.12247
N          1.68844       -2.23478       -0.09038
H          2.04552       -3.21183       -0.19657
C          2.13166        1.41632        0.29401
C          2.62370        1.76816        1.70737
N          3.41686        2.99642        1.66850
H          3.77898        3.20773        2.62699
H          2.83107        3.79872        1.34401
H          3.51336       -1.12104        0.13554
H          3.26844        0.95833        2.10891
H          1.75300        1.89769        2.39152
H          2.98529        1.49651       -0.41372
H          1.36780        2.15680       -0.02245
H         -1.00951        1.24100        0.15345
H         -2.86470       -2.63522       -0.40147
H         -0.62063       -3.71744       -0.40521
