           Doing BLAS/Lapack in the master proc. with  2 CPUs.
           SMPCPUS    set: Shared-memory Parallelization with   2 CPUs.

           SMP Parallelization Reference:
           C. van Wullen, J. Comput. Chem. 32 (2011) 1195--1201

 data group $actual step is not empty 
 due to the abend of ridft

 operating system is UNIX !

 ridft (newyork) : TURBOMOLE V7.2 ( 21454 ) 4 Oct 2017 at 12:48:15
 Copyright (C) 2017 TURBOMOLE GmbH, Karlsruhe


    2019-09-09 16:18:54.955 



                                  r i d f t

                        DFT program with RI approximation 
                                for coulomb part 




                                                 
                                 References:     
                                                 
          TURBOMOLE:                             
              R. Ahlrichs, M. Baer, M. Haeser, H. Horn, and
              C. Koelmel
              Electronic structure calculations on workstation
              computers: the program system TURBOMOLE
              Chem. Phys. Lett. 162: 165 (1989)
          Density Functional:                              
              O. Treutler and R. Ahlrichs                      
              Efficient Molecular Numerical Integration Schemes
              J. Chem. Phys. 102: 346 (1995)                   
          Parallel Version:                                
              Performance of parallel TURBOMOLE for Density    
              Functional Calculations                          
              M. v. Arnim and R. Ahlrichs                      
              J. Comp. Chem. 19: 1746 (1998)                   
          RI-J Method:                                     
              Auxiliary Basis Sets to approximate Coulomb      
              Potentials                                       
              Chem. Phys. Lett. 240: 283 (1995)                
              K. Eichkorn, O. Treutler, H. Oehm, M. Haeser     
              and R. Ahlrichs                                  
              Chem. Phys. Lett. 242: 652 (1995)                
                                                           
              Auxiliary Basis Sets for Main Row Atoms and their
              Use to approximate Coulomb Potentials            
              K. Eichkorn, F. Weigend, O. Treutler and         
              R. Ahlrichs                                      
              Theo. Chem. Acc. 97: 119 (1997)                   
                                                           
              Accurate Coulomb-fitting basis sets for H to Rn 
              F. Weigend                                        
              Phys. Chem. Chem. Phys. 8: 1057 (2006)            
                                                           
          Multipole accelerated RI-J (MARI-J):             
              Fast evaluation of the Coulomb potential for     
              electron densities using multipole accelerated   
              resolution of identity approximation             
              M. Sierka, A. Hogekamp and R. Ahlrichs           
              J. Chem. Phys. 118: 9136 (2003)                  
          RI-JK Method:                                     
              A fully direct RI-HF algorithm: Implementation,
              optimised auxiliary basis sets, demonstration of
              accuracy and efficiency                         
              F. Weigend                                      
              Phys. Chem. Chem. Phys. 4: 4285 (2002)           
          Two-component HF and DFT with spin-orbit coupling:  
              Self-consistent treatment of spin-orbit         
              interactions with efficient Hartree-Fock and    
              density functional methods                      
              M. K. Armbruster, F. Weigend, C. van Wüllen and 
              W. Klopper                                      
              Phys. Chem. Chem. Phys. 10: 1748 (2008)         
          Relativistic all-electron 2c calculations           
              An efficient implementation of two-component    
              relativistic exact-decoupling methods for large 
              molecules                                       
              D. Peng, N. Middendorf, F. Weigend, M. Reiher   
              J. Chem. Phys. 138, 184105 (2013)               
                                         




              +--------------------------------------------------+
              |      general information about current run       |
              +--------------------------------------------------+

 

 DENSITY CONVERGENCE CHECK SWITCHED ON !
 SCF CONVERGENCE IF RMS(delta[D]) <     0.1000000000E-06

 PBE0 hybrid functional
 exchange:    3/4 (LDA+PBE) + 1/4 HF
 correlation: LDA (PW) + PBE
 A Hybrid-DFT calculation using the RI-J approximation will be carried out.
 Allocatable memory for RI due to $ricore (MB):                   500


              +--------------------------------------------------+
              | Atomic coordinate, charge and isotop information |
              +--------------------------------------------------+

                    atomic coordinates            atom    charge  isotop
          0.73891996    1.47944883   -0.20771341    c      6.000     0
          3.17235053    1.94750186    0.36890818    c      6.000     0
          3.82935918    4.58928231    0.56100829    c      6.000     0
          1.86563137    6.16051778    0.07457199    c      6.000     0
         -0.97368026    4.39523578   -0.59387138    s     16.000     0
         -0.52273113   -0.92669033   -0.49994065    c      6.000     0
         -2.88435211   -1.40285974   -1.31791428    c      6.000     0
         -3.55481939   -4.04505403   -1.44765532    c      6.000     0
         -1.67889203   -5.60623049   -0.66837572    c      6.000     0
          1.08887834   -3.83257511    0.23512313    s     16.000     0
        -10.72004105   -5.40944953   -3.34881807    c      6.000     0
         -9.18231610   -6.84516896   -4.78770846    c      6.000     0
         -6.53870640   -6.54416015   -4.25435594    c      6.000     0
         -6.01892211   -4.86783512   -2.41403103    c      6.000     0
         -8.89729815   -3.52393748   -1.16831789    s     16.000     0
         -1.67679066   -8.34000658   -0.40034831    c      6.000     0
         -3.33274633   -9.80138849    0.86557545    c      6.000     0
         -2.80286712  -12.45751384    0.74906816    c      6.000     0
         -0.70672242  -13.05630758   -0.57330927    c      6.000     0
          0.76275696  -10.25286296   -1.83170814    s     16.000     0
          1.81389445    8.90440390   -0.05407300    c      6.000     0
          3.28229291   10.44267310   -1.45309773    c      6.000     0
          2.76320026   13.08418142   -1.13395133    c      6.000     0
          0.85984920   13.59523329    0.48396415    c      6.000     0
         -0.42018136   10.71848808    1.78281072    s     16.000     0
         11.15157929    5.97473313    1.68988533    c      6.000     0
          9.77712100    7.30430475    3.37449114    c      6.000     0
          7.09258551    6.98513379    3.13665021    c      6.000     0
          6.38043654    5.40038489    1.27990735    c      6.000     0
          9.10823732    4.17466694   -0.36314149    s     16.000     0
         18.51805868    4.75543459    0.82391077    c      6.000     0
         18.13568015    7.22261756    1.40982413    c      6.000     0
         15.50085768    7.86397927    1.70946289    c      6.000     0
         13.87654359    5.92796052    1.41387382    c      6.000     0
         15.56151978    3.07072862    0.66975069    s     16.000     0
         23.70275287   11.96082049    3.29343511    c      6.000     0
         22.40036496   12.91766253    1.32306303    c      6.000     0
         20.37736022   11.33256781    0.44800078    c      6.000     0
         20.10398488    9.15636109    1.73998386    c      6.000     0
         22.42657924    8.93978902    4.22177630    s     16.000     0
         24.48261828    0.29098305   -0.09821511    c      6.000     0
         24.85721869    2.47583528   -1.35897614    c      6.000     0
         22.82207435    4.25072653   -1.15219286    c      6.000     0
         20.86198427    3.44624366    0.26477671    c      6.000     0
         21.46754323    0.31699702    1.48080603    s     16.000     0
         -1.95410419   19.95574909    3.32672642    c      6.000     0
         -1.50130313   20.28184590    0.82483862    c      6.000     0
         -0.46722987   18.06182399   -0.38161167    c      6.000     0
         -0.14624666   16.05568128    1.14838052    c      6.000     0
         -1.12996061   16.80128595    4.31601506    s     16.000     0
         -1.88675624   26.38528526   -3.58968257    c      6.000     0
         -4.10221447   26.09228700   -2.36276843    c      6.000     0
         -4.19787240   23.95316615   -0.69719027    c      6.000     0
         -2.05776890   22.58424854   -0.61161780    c      6.000     0
          0.30085687   23.92348989   -2.68926964    s     16.000     0
         -5.27159589   24.10071030    8.64626391    c      6.000     0
         -3.25497843   25.35938317    7.72245428    c      6.000     0
         -1.91064805   24.04371805    5.77071679    c      6.000     0
         -2.87343139   21.76198146    5.18244882    c      6.000     0
         -5.62551514   21.09189780    7.08786157    s     16.000     0
        -18.11729085   -4.05150744   -3.42375894    c      6.000     0
        -17.71216569   -6.54680954   -3.84355593    c      6.000     0
        -15.07361668   -7.23761216   -3.80280588    c      6.000     0
        -13.45665740   -5.31455693   -3.39911691    c      6.000     0
        -15.16723183   -2.40549929   -2.97174779    s     16.000     0
        -23.09389218  -11.25505276   -6.25960481    c      6.000     0
        -22.27872480  -12.00721478   -3.96424140    c      6.000     0
        -20.34686911  -10.43247954   -2.89033650    c      6.000     0
        -19.67403212   -8.45254355   -4.33573133    c      6.000     0
        -21.42860882   -8.45129633   -7.25722525    s     16.000     0
        -24.83873301   -0.89301730   -2.27641739    c      6.000     0
        -23.35358591    0.70842734   -3.59303305    c      6.000     0
        -20.87844907   -0.25074663   -4.12446939    c      6.000     0
        -20.44574903   -2.61051757   -3.25587000    c      6.000     0
        -23.19066695   -3.79710873   -1.61673100    s     16.000     0
          2.43919915  -19.55030608   -2.68136869    c      6.000     0
          1.61250633  -19.76264138   -0.26468487    c      6.000     0
          0.43522774  -17.48377717    0.67382116    c      6.000     0
          0.35746551  -15.54881100   -0.97462852    c      6.000     0
          1.78381946  -16.44657642   -3.92632405    s     16.000     0
          1.33030219  -25.57316940    4.52970718    c      6.000     0
          3.62350753  -25.50992216    3.41703832    c      6.000     0
          3.95770749  -23.49633771    1.63297811    c      6.000     0
          1.92641441  -21.99430779    1.33921641    c      6.000     0
         -0.62606891  -23.03573397    3.35588111    s     16.000     0
          4.76279885  -25.08285917   -7.14784979    c      6.000     0
          6.53085874  -23.25232115   -7.18163998    c      6.000     0
          5.86945082  -21.14220949   -5.57051995    c      6.000     0
          3.65534564  -21.37922272   -4.33877001    c      6.000     0
          2.16002235  -24.33736977   -5.14841750    s     16.000     0
         29.16707551   14.66447435    7.68833906    c      6.000     0
         29.67977899   15.26032389    5.24967205    c      6.000     0
         27.78978263   14.35322511    3.49968171    c      6.000     0
         25.86648551   13.06992721    4.55849716    c      6.000     0
         26.26715092   12.89035788    7.92961173    s     16.000     0
         31.93782976   16.60660825    4.37122907    c      6.000     0
         34.38357757   16.16942200    4.91270364    c      6.000     0
         36.13011348   17.84659363    3.66537479    c      6.000     0
         35.01072476   19.55414260    2.16251150    c      6.000     0
         31.64860906   19.22286417    2.18593655    s     16.000     0
         32.94614983   15.31712150   14.11742735    c      6.000     0
         32.53973021   17.63781669   13.17736608    c      6.000     0
         31.16559128   17.63849699   10.82858390    c      6.000     0
         30.54275834   15.32272076    9.97647426    c      6.000     0
         31.65534405   12.91230516   12.13318657    s     16.000     0
         28.27463722   -6.19076813    0.21955745    c      6.000     0
         29.93681765   -4.24117359    0.27201625    c      6.000     0
         28.72501187   -1.79417667    0.22845239    c      6.000     0
         26.18645394   -1.84632366    0.08237089    c      6.000     0
         25.06496951   -5.05580429    0.04502802    s     16.000     0
         32.69338006   -4.49348604    0.31454832    c      6.000     0
         34.18151104   -6.05066762   -1.04039855    c      6.000     0
         36.84451500   -5.76952928   -0.55180419    c      6.000     0
         37.38286585   -3.98415572    1.16619686    c      6.000     0
         34.58913820   -2.49961521    2.34396867    s     16.000     0
         28.68275004   -8.90995176    0.33385187    c      6.000     0
         27.87332364  -10.68341438   -1.30751323    c      6.000     0
         28.48255056  -13.23816160   -0.59572142    c      6.000     0
         29.74357426  -13.40315358    1.59899139    c      6.000     0
         30.27477439  -10.37180799    2.98075347    s     16.000     0
        -28.31994870  -15.26456973   -9.85663236    c      6.000     0
        -28.04961015  -13.01249428  -11.04516806    c      6.000     0
        -26.15633322  -11.40840781   -9.90630948    c      6.000     0
        -25.01021243  -12.37781275   -7.85282724    c      6.000     0
        -26.21571597  -15.49044492   -7.18091244    s     16.000     0
        -29.53553771  -12.17159828  -13.22968580    c      6.000     0
        -32.05993592  -12.12903409  -13.52989525    c      6.000     0
        -32.89159684  -11.12644366  -15.92189547    c      6.000     0
        -30.99468596  -10.39518579  -17.43678309    c      6.000     0
        -27.98025909  -10.91060104  -16.00194994    s     16.000     0
        -33.07239260  -21.01115509  -10.51688000    c      6.000     0
        -31.84153650  -20.72000499  -12.71552344    c      6.000     0
        -30.04426332  -18.67684443  -12.69912818    c      6.000     0
        -29.92032942  -17.40486977  -10.49812824    c      6.000     0
        -32.10327679  -18.73347952   -8.22283940    s     16.000     0
        -32.06361333   -0.77197656   -0.19669819    c      6.000     0
        -31.04476938    1.55040048    0.16137845    c      6.000     0
        -28.41001305    1.69300867   -0.53291260    c      6.000     0
        -27.40673666   -0.46937660   -1.42412445    c      6.000     0
        -29.75435855   -2.92890619   -1.47221987    s     16.000     0
        -32.35983168    3.75810327    1.21984619    c      6.000     0
        -32.84891170    5.98260006    0.08708765    c      6.000     0
        -34.08542943    7.81043766    1.68358876    c      6.000     0
        -34.51773641    6.97086258    4.03709715    c      6.000     0
        -33.40996383    3.81234975    4.46465147    s     16.000     0
        -34.61026307   -1.70243235    0.24068270    c      6.000     0
        -35.29876400   -3.91586668    1.30409585    c      6.000     0
        -37.98220156   -4.34264999    1.37323337    c      6.000     0
        -39.33432707   -2.45705669    0.34747679    c      6.000     0
        -37.36472032    0.02785570   -0.79962665    s     16.000     0
         -0.98307786   32.11588920   -8.35533188    c      6.000     0
          1.12019110   30.65657465   -8.41648531    c      6.000     0
          1.00169960   28.52114066   -6.71860039    c      6.000     0
         -1.15763754   28.30576290   -5.39058401    c      6.000     0
         -3.27299319   30.86125467   -6.15698701    s     16.000     0
          7.71664111   31.47471080  -11.89691298    c      6.000     0
          5.86752141   31.92854553  -13.57127080    c      6.000     0
          3.36446954   31.69550073  -12.52731428    c      6.000     0
          3.30802342   31.08009818  -10.05910518    c      6.000     0
          6.48384992   30.72626964   -8.84461977    s     16.000     0
         -1.84551486   38.92985424  -11.33680571    c      6.000     0
         -3.77289567   37.46467398  -12.09368827    c      6.000     0
         -3.63849268   34.91844754  -11.14358121    c      6.000     0
         -1.60584656   34.44461194   -9.68095775    c      6.000     0
          0.31039054   37.25529611   -9.35467575    s     16.000     0
         -0.24536847  -30.93503487    9.54567339    c      6.000     0
         -2.27286886  -29.38904992    9.32797316    c      6.000     0
         -1.89646565  -27.35151508    7.55282868    c      6.000     0
          0.37368503  -27.31604492    6.40183996    c      6.000     0
          2.28812878  -29.90813123    7.50467279    s     16.000     0
         -8.96680606  -31.08047953   12.29111287    c      6.000     0
         -8.23061411  -28.82547501   13.18771611    c      6.000     0
         -5.79974411  -28.02590164   12.25592050    c      6.000     0
         -4.68786894  -29.67640357   10.67078043    c      6.000     0
         -6.67811339  -32.40438198   10.19459023    s     16.000     0
          0.66408113  -36.24865563   14.73323052    c      6.000     0
          1.40532432  -37.17040545   12.48874610    c      6.000     0
          1.13237417  -35.39886846   10.44486556    c      6.000     0
          0.17144654  -33.13906970   11.13083425    c      6.000     0
         -0.44148613  -33.07284803   14.48951443    s     16.000     0
         12.59131250  -24.92912806  -10.51414745    c      6.000     0
         10.58996591  -25.41836871   -8.99030631    c      6.000     0
          8.87048899  -23.27046630   -8.71047000    c      6.000     0
          9.62326139  -21.23308831  -10.03319514    c      6.000     0
         12.47677809  -21.74965061  -11.71936943    s     16.000     0
         10.17443403  -27.86369322   -7.72856452    c      6.000     0
         10.34667312  -28.41614332   -5.25369036    c      6.000     0
          9.74300956  -30.99868085   -4.62617845    c      6.000     0
          9.10203335  -32.40599391   -6.63511985    c      6.000     0
          9.19845473  -30.61795016   -9.49809462    s     16.000     0
         14.70544172  -26.55307366  -11.18082016    c      6.000     0
         16.12013795  -28.02893276   -9.66148035    c      6.000     0
         18.08267712  -29.40523920  -10.94672277    c      6.000     0
         18.16877871  -28.96262566  -13.44282990    c      6.000     0
         15.78275758  -26.78909668  -14.41735410    s     16.000     0
        -10.05419983   25.35668087   14.30650012    c      6.000     0
         -9.60277071   27.56272448   13.08091446    c      6.000     0
         -7.88351299   27.29572318   10.97923475    c      6.000     0
         -7.01623641   24.93596169   10.58511347    c      6.000     0
         -8.31979974   22.79503426   12.88106458    s     16.000     0
        -10.72482773   30.03286487   13.68471409    c      6.000     0
         -9.51278384   32.17512267   14.33412603    c      6.000     0
        -11.14101534   34.33171026   14.68144824    c      6.000     0
        -13.59234919   33.82309047   14.27862477    c      6.000     0
        -14.07988908   30.59431007   13.42295489    s     16.000     0
        -11.60027360   24.88444397   16.52336242    c      6.000     0
        -11.73791369   26.25004890   18.67037665    c      6.000     0
        -13.47173175   25.26138576   20.51664286    c      6.000     0
        -14.63869243   23.13291918   19.77915834    c      6.000     0
        -13.68511962   22.18076933   16.68855283    s     16.000     0
          4.53046269    0.48468187    0.69982568    h      1.000     0
         -4.16908054    0.05178152   -1.88985879    h      1.000     0
         -5.09349488   -7.53993433   -5.26031196    h      1.000     0
         -9.87850632   -8.06017026   -6.24833826    h      1.000     0
         -4.91478536   -9.03384976    1.86503459    h      1.000     0
         -3.98358313  -13.85511371    1.61283363    h      1.000     0
          4.72117763    9.74090629   -2.68932633    h      1.000     0
          3.81318501   14.53512637   -2.07520124    h      1.000     0
          5.76371875    7.89920377    4.35764194    h      1.000     0
         10.62596708    8.45060885    4.80966255    h      1.000     0
         14.89894023    9.74664728    2.13910157    h      1.000     0
         19.17499929   11.83880843   -1.10052019    h      1.000     0
         22.81821553   14.72424071    0.51284673    h      1.000     0
         22.83362247    6.05075870   -2.07225705    h      1.000     0
         26.51283043    2.82367339   -2.46836632    h      1.000     0
         -0.07601310   17.99662844   -2.36507956    h      1.000     0
         -5.84156753   23.47305477    0.37930356    h      1.000     0
         -5.67441748   27.34011096   -2.62121871    h      1.000     0
         -0.25986267   24.79019010    4.87109754    h      1.000     0
         -2.67528982   27.16212710    8.43456545    h      1.000     0
        -14.46517400   -9.14774923   -4.07230350    h      1.000     0
        -19.52918272  -10.78275350   -1.07200233    h      1.000     0
        -23.02736815  -13.62516239   -3.00674741    h      1.000     0
        -19.49297935    0.79896789   -5.16082544    h      1.000     0
        -23.99553910    2.51704453   -4.23264488    h      1.000     0
         -0.23760736  -17.32248716    2.57442078    h      1.000     0
          5.68562771  -23.19835246    0.62621329    h      1.000     0
          5.08606296  -26.84251923    3.84130451    h      1.000     0
          7.06873905  -19.52711158   -5.34483941    h      1.000     0
          4.76524415  -26.82924391   -8.15234506    h      1.000     0
          8.67885753  -19.45926286  -10.19240646    h      1.000     0
         27.96119213   14.61245397    1.50097507    h      1.000     0
         34.97299449   14.68833214    6.15791411    h      1.000     0
         38.13521496   17.72732923    3.90828208    h      1.000     0
         30.66673382   19.32862836    9.83545156    h      1.000     0
         33.16102681   19.33214136   14.09162125    h      1.000     0
         29.77687123   -0.06835782    0.30885646    h      1.000     0
         33.43857088   -7.37739520   -2.37359656    h      1.000     0
         38.25851392   -6.87787256   -1.48211069    h      1.000     0
         26.86563474  -10.21594338   -2.99958724    h      1.000     0
         27.97922768  -14.84577996   -1.71587738    h      1.000     0
        -25.75623284   -9.55843396  -10.62053148    h      1.000     0
        -33.33533288  -12.77518247  -12.09885100    h      1.000     0
        -34.84331166  -10.96772746  -16.43106139    h      1.000     0
        -28.89043434  -18.20152539  -14.29097300    h      1.000     0
        -32.15009287  -21.90319653  -14.32722740    h      1.000     0
        -27.32532158    3.37985380   -0.26957926    h      1.000     0
        -32.37895382    6.34484733   -1.84857017    h      1.000     0
        -34.61381198    9.65640341    1.04582131    h      1.000     0
        -33.95112659   -5.23005026    2.04730813    h      1.000     0
        -38.81479033   -6.00221315    2.17610052    h      1.000     0
          2.51582755   27.18684850   -6.57920096    h      1.000     0
          1.68422144   31.97559216  -13.61721193    h      1.000     0
          6.21438631   32.40932021  -15.50556046    h      1.000     0
         -5.02632267   33.50572608  -11.56230862    h      1.000     0
         -5.26513870   38.11805246  -13.29315792    h      1.000     0
         -3.35416449  -26.00294415    7.16746439    h      1.000     0
         -4.93050411  -26.27848323   12.79440363    h      1.000     0
         -9.33524218  -27.72606069   14.47780380    h      1.000     0
          1.62608402  -35.83320690    8.53082243    h      1.000     0
          2.11958977  -39.04602289   12.23590263    h      1.000     0
         10.87851575  -27.03946082   -3.86808269    h      1.000     0
          9.80183295  -31.71946964   -2.73654492    h      1.000     0
         15.80800999  -28.15335422   -7.66865642    h      1.000     0
         19.35693834  -30.65473746   -9.99421387    h      1.000     0
         -7.41326220   28.85379860    9.77806624    h      1.000     0
         -7.50497817   32.25636766   14.58415569    h      1.000     0
        -10.45563813   36.15946471   15.21392583    h      1.000     0
        -10.63744868   27.91968807   18.96847528    h      1.000     0
        -13.78748797   26.13755350   22.31237024    h      1.000     0
         35.86682361   20.98827655    1.03459822    h      1.000     0
         33.89159493   14.80457486   15.82214930    h      1.000     0
         39.18698361   -3.40830136    1.85561053    h      1.000     0
         30.41811389  -15.05774865    2.53214571    h      1.000     0
        -31.09952041   -9.59010388  -19.28145626    h      1.000     0
        -34.47065388  -22.38099867  -10.03627918    h      1.000     0
        -35.40316003    7.93768237    5.56811925    h      1.000     0
        -41.33677159   -2.30155490    0.17769057    h      1.000     0
          9.71069335   31.51860157  -12.18589746    h      1.000     0
         -1.49661661   40.86492436  -11.78087434    h      1.000     0
        -10.66487806  -32.09162663   12.68702939    h      1.000     0
          0.65694175  -37.17300950   16.52444145    h      1.000     0
          8.58547671  -34.35366472   -6.68669425    h      1.000     0
         19.43616700  -29.73182167  -14.80820238    h      1.000     0
        -15.16919336   35.07127915   14.41492694    h      1.000     0
        -15.98847657   22.02971030   20.79064559    h      1.000     0
 
       center of nuclear mass  :   -0.08155468   -0.16488309    0.06232418
       center of nuclear charge:   -0.07748355   -0.15642953    0.05996095

              +--------------------------------------------------+
              |               basis set information              |
              +--------------------------------------------------+

              we will work with the 1s 3p 5d 7f 9g ... basis set
              ...i.e. with spherical basis functions...

   type   atoms  prim   cont   basis
   ---------------------------------------------------------------------------
    c      168     24     14   def2-SVP   [3s2p1d|7s4p1d]
    s       42     36     18   def2-SVP   [4s3p1d|10s7p1d]
    h       86      7      5   def2-SVP   [2s1p|4s1p]
   ---------------------------------------------------------------------------
   total:  296   6146   3538
   ---------------------------------------------------------------------------

   total number of primitive shells          :   35
   total number of contracted shells         : 1602
   total number of cartesian basis functions : 3748
   total number of SCF-basis functions       : 3538


 integral neglect threshold       :  0.89E-11
 integral storage threshold THIZE :  0.10E-04
 integral storage threshold THIME :         5

 RI-J AUXILIARY BASIS SET information:

              we will work with the 1s 3p 5d 7f 9g ... basis set
              ...i.e. with spherical basis functions...

   type   atoms  prim   cont   basis
   ---------------------------------------------------------------------------
    c      168     70     49   def2-SVP   [6s4p3d1f1g|12s5p4d2f1g]
    s       42     77     51   def2-SVP   [8s4p3d1f1g|14s5p5d2f1g]
    h       86     16     11   def2-SVP   [3s1p1d|5s2p1d]
   ---------------------------------------------------------------------------
   total:  296  16370  11320
   ---------------------------------------------------------------------------

   total number of primitive shells          :   59
   total number of contracted shells         : 3664
   total number of cartesian basis functions :13926
   total number of SCF-basis functions       :11320


 symmetry group of the molecule :   c1 

 the group has the following generators :
   c1(z)

    1 symmetry operations found

 there are 1 real representations :   a   

 maximum number of shells which are related by symmetry :  1

 ==============================================================================
                      COSMO switched on
 ==============================================================================
 COSMO stati: segments per atom: H   32 other atoms   92
 COSMO statistics: nps  10632 npspher:   4447
 COSMO surface:
   number of segments:10632
   area (bohr**2):    10379.611140
   volume (bohr**3):  24700.773729
 COSMO: check number of disjunct cavities:

       ... OK contiguous cavity found

    mo occupation :
   irrep   mo's   occupied
    a     3538      883
 
 number of basis functions   :                   3538
 number of occupied orbitals :                    883
 
  
           ------------------
           density functional
           ------------------
 PBE0 hybrid functional
 exchange:    3/4 (LDA+PBE) + 1/4 HF
 correlation: LDA (PW) + PBE

 spherical integration : Lebedev's spherical grid
 spherical gridsize    :                     5
    i.e. gridpoints    :                   590
 value for diffuse not defined
 radial integration    : Chebyshev 2nd kind (scaling 3)
 radial gridsize       :                     8
 integration cells     :                   296
 partition function    : becke
 partition sharpness   :                     3
  

 biggest AO integral is expected to be     9.765798878
  
           ------------------------
               RI-J - INFORMATION
           ------------------------
 Contributions to RI integral batches: 
  neglected integral batches:               1174076
  direct contribution:                       109927
  memory contribution:                     0
 Memory core needed for (P|Q) and Cholesky    978 MByte
 Memory core minimum needed except of (P|Q)    26 MByte
 Total minimum memory core needed (sum)      1004 MByte
  
 ****************************************
 Memory allocated for RI-J  1004 MByte
 ****************************************
                                            

          ------------------------
          nuclear repulsion energy  :   62639.9482603    
          ------------------------


         -----------------
         -S,T+V- integrals
         -----------------

 1e-integrals will be neglected if expon. factor < 0.891665E-12
 Difference densities >>NOT<< switched on in parallel ridft!

 DIIS switched on: error vector is FDS-SDF
 Max. Iterations for DIIS is     :   4
 DIIS matrix (see manual) 
    Scaling factor of diagonals  :  1.200
    threshold for scaling factor :  0.000

 scf convergence criterion : increment of total energy < .1000000D-05
                  and increment of one-electron energy < .1000000D-02

  MOs are in ASCII format !


 automatic virtual orbital shift switched on 
      shift if e(lumo)-e(homo) < 0.10000000    


 reading orbital data $scfmo  from file mos
 orbital characterization : expanded
 mo provided and orthogonalized by Cholesky decomposition

 DSCF restart information will be dumped onto file mos


 Starting SCF iterations

          Overall gridpoints after grid construction =       4934568

 ITERATION  ENERGY          1e-ENERGY        2e-ENERGY     RMS[dD(SAO)]   TOL
   1  -23128.518507668    -156597.21515     70828.748382    0.000D+00 0.889D-11
                            Exc = -1509.61735460     Coul =  72821.9755340    
                            exK = -483.609797024    
                              N = 1766.0000280    
                          Ediel =-0.110966637539    
                            current damping = 0.700
 
          max. resid. norm for Fia-block=  8.890D-01 for orbital      4a         
          max. resid. fock norm         =  1.622D+00 for orbital      4a         

 ITERATION  ENERGY          1e-ENERGY        2e-ENERGY     RMS[dD(SAO)]   TOL
   2  -23147.518803735    -156756.28551     70968.818444    0.228D-02 0.889D-11
                            Exc = -1515.97929550     Coul =  72970.6074927    
                            exK = -485.809752943    
                              N = 1766.0000213    
                          Ediel =-0.704340881095E-01
                            current damping = 0.650
 
          Norm of current diis error:  7.5247    
          max. resid. norm for Fia-block=  3.720D-01 for orbital     38a         
          max. resid. fock norm         =  6.671D-01 for orbital     12a         

 ITERATION  ENERGY          1e-ENERGY        2e-ENERGY     RMS[dD(SAO)]   TOL
   3  -23152.355553519    -156812.61079     71020.306973    0.119D-02 0.889D-11
                            Exc = -1518.29166144     Coul =  73025.3210802    
                            exK = -486.722445492    
                              N = 1766.0000145    
                          Ediel =-0.541062825440E-01
                            current damping = 0.550
 
          Norm of current diis error:  3.6645    
          max. resid. norm for Fia-block=  1.476D-01 for orbital     42a         
          max. resid. fock norm         =  2.629D-01 for orbital     42a         

 ITERATION  ENERGY          1e-ENERGY        2e-ENERGY     RMS[dD(SAO)]   TOL
   4  -23153.968537426    -156853.52777     71059.610975    0.899D-03 0.889D-11
                            Exc = -1519.79381316     Coul =  73066.6837373    
                            exK = -487.278948713    
                              N = 1766.0000090    
                          Ediel =-0.721860155101E-01
                            current damping = 0.450
 
          Norm of current diis error:  1.4424    
          max. resid. norm for Fia-block=  5.239D-02 for orbital     41a         
          max. resid. fock norm         =  9.303D-02 for orbital     15a         

 ITERATION  ENERGY          1e-ENERGY        2e-ENERGY     RMS[dD(SAO)]   TOL
   5  -23154.308520314    -156870.74855     71076.491773    0.519D-03 0.889D-11
                            Exc = -1520.43838163     Coul =  73084.4649500    
                            exK = -487.534794966    
                              N = 1766.0000058    
                          Ediel =-0.921671257367E-01
                            current damping = 0.350
 
          Norm of current diis error: 0.53655    
          max. resid. norm for Fia-block=  1.633D-02 for orbital     42a         
          max. resid. fock norm         =  2.909D-02 for orbital      2a         
          mo-orthogonalization: Cholesky decomposition

 ITERATION  ENERGY          1e-ENERGY        2e-ENERGY     RMS[dD(SAO)]   TOL
   6  -23154.366668957    -156881.83486     71087.519931    0.280D-03 0.889D-11
                            Exc = -1520.70519791     Coul =  73095.8596041    
                            exK = -487.634474783    
                              N = 1766.0000044    
                          Ediel =-0.109312605492    
                            current damping = 0.250
 
          Norm of current diis error: 0.22313    
          max. resid. norm for Fia-block=  4.710D-03 for orbital    856a         
          max. resid. fock norm         =  8.341D-03 for orbital    516a         

 ITERATION  ENERGY          1e-ENERGY        2e-ENERGY     RMS[dD(SAO)]   TOL
   7  -23154.374323500    -156880.72703     71086.404441    0.112D-03 0.889D-11
                            Exc = -1520.75599914     Coul =  73094.8235372    
                            exK = -487.663096827    
                              N = 1766.0000039    
                          Ediel =-0.110876399877    
                            current damping = 0.300
 
          Norm of current diis error: 0.13187    
          max. resid. norm for Fia-block=  2.303D-03 for orbital    858a         
          max. resid. fock norm         =  3.746D-03 for orbital    434a         

 ITERATION  ENERGY          1e-ENERGY        2e-ENERGY     RMS[dD(SAO)]   TOL
   8  -23154.377111276    -156882.80629     71088.480919    0.464D-04 0.889D-11
                            Exc = -1520.77167507     Coul =  73096.9228492    
                            exK = -487.670255625    
                              N = 1766.0000037    
                          Ediel =-0.113931598424    
                            current damping = 0.350
 
          Norm of current diis error: 0.36711E-01
          max. resid. norm for Fia-block=  7.055D-04 for orbital    776a         
          max. resid. fock norm         =  1.141D-03 for orbital    505a         

 ITERATION  ENERGY          1e-ENERGY        2e-ENERGY     RMS[dD(SAO)]   TOL
   9  -23154.377325262    -156883.05327     71088.727687    0.159D-04 0.889D-11
                            Exc = -1520.78109264     Coul =  73097.1821721    
                            exK = -487.673392605    
                              N = 1766.0000037    
                          Ediel =-0.114393733431    
                            current damping = 0.200
 
          Norm of current diis error: 0.14861E-01
          max. resid. norm for Fia-block=  2.510D-04 for orbital    806a         
          max. resid. fock norm         =  4.185D-04 for orbital    505a         

 ITERATION  ENERGY          1e-ENERGY        2e-ENERGY     RMS[dD(SAO)]   TOL
  10  -23154.377361236    -156883.02873     71088.703111    0.579D-05 0.889D-11
                            Exc = -1520.78149671     Coul =  73097.1588049    
                            exK = -487.674197155    
                              N = 1766.0000037    
                          Ediel =-0.114446346104    
                            current damping = 0.250
 
          Norm of current diis error: 0.59138E-02
          max. resid. norm for Fia-block=  1.248D-04 for orbital    874a         
          max. resid. fock norm         =  2.233D-04 for orbital    434a         
          mo-orthogonalization: Cholesky decomposition

 ITERATION  ENERGY          1e-ENERGY        2e-ENERGY     RMS[dD(SAO)]   TOL
  11  -23154.377365543    -156883.08063     71088.755002    0.265D-05 0.889D-11
                            Exc = -1520.78123303     Coul =  73097.2105907    
                            exK = -487.674355561    
                              N = 1766.0000037    
                          Ediel =-0.114600947627    
                            current damping = 0.300
 
          Norm of current diis error: 0.37738E-02
          max. resid. norm for Fia-block=  4.985D-05 for orbital    771a         
          max. resid. fock norm         =  9.228D-05 for orbital    434a         

 ITERATION  ENERGY          1e-ENERGY        2e-ENERGY     RMS[dD(SAO)]   TOL
  12  -23154.377367798    -156883.09174     71088.766108    0.117D-05 0.889D-11
                            Exc = -1520.78151936     Coul =  73097.2221085    
                            exK = -487.674481179    
                              N = 1766.0000037    
                          Ediel =-0.114603854138    
                            current damping = 0.150
 
          Norm of current diis error: 0.92648E-03
          max. resid. norm for Fia-block=  2.060D-05 for orbital    786a         
          max. resid. fock norm         =  3.000D-05 for orbital    461a         

 ITERATION  ENERGY          1e-ENERGY        2e-ENERGY     RMS[dD(SAO)]   TOL
  13  -23154.377367853    -156883.07923     71088.753600    0.502D-06 0.889D-11
                            Exc = -1520.78178621     Coul =  73097.2099608    
                            exK = -487.674574138    
                              N = 1766.0000037    
                          Ediel =-0.114586943989    
                            current damping = 0.200
 
          Norm of current diis error: 0.85852E-03
          max. resid. norm for Fia-block=  1.319D-05 for orbital    800a         
          max. resid. fock norm         =  2.467D-05 for orbital    505a         

 ITERATION  ENERGY          1e-ENERGY        2e-ENERGY     RMS[dD(SAO)]   TOL
  14  -23154.377367968    -156883.08819     71088.762565    0.257D-06 0.889D-11
                            Exc = -1520.78168419     Coul =  73097.2188128    
                            exK = -487.674563604    
                              N = 1766.0000037    
                          Ediel =-0.114601500316    
                            current damping = 0.250
 
          Norm of current diis error: 0.19508E-03
          max. resid. norm for Fia-block=  4.007D-06 for orbital    808a         
          max. resid. fock norm         =  7.590D-06 for orbital    505a         

 ENERGY & DENSITY CONVERGED !


 ITERATION  ENERGY          1e-ENERGY        2e-ENERGY     RMS[dD(SAO)]   TOL
  15  -23154.377367974    -156883.08851     71088.762886    0.904D-07 0.889D-11
                            Exc = -1520.78168692     Coul =  73097.2191440    
                            exK = -487.674571523    
                              N = 1766.0000037    
                          Ediel =-0.114602772692    
                            current damping = 0.100
 
          Norm of current diis error: 0.13403E-03
          max. resid. norm for Fia-block=  2.234D-06 for orbital    874a         
          max. resid. fock norm         =  3.640D-06 for orbital    516a         

 End of SCF iterations
 COSMO: write data to file cosmo_transfer.tmp

   convergence criteria satisfied after    15 iterations


                  ------------------------------------------ 
                 |  total energy      = -23154.37736797398  |
                  ------------------------------------------ 
                 :  kinetic energy    =  23056.27422298607  :
                 :  potential energy  = -46210.65159096006  :
                 :  virial theorem    =      1.99576308430  :
                 :  wavefunction norm =      1.00000000000  :
                  .......................................... 


 <geterg> : there is no data group $energy 


 <skperg> : $end is missing 


 orbitals $scfmo  will be written to file mos

    irrep                879a        880a        881a        882a        883a   
 eigenvalues H         -0.22442    -0.22049    -0.21943    -0.21754    -0.21520
            eV          -6.1068     -5.9998     -5.9712     -5.9195     -5.8558
 occupation              2.0000      2.0000      2.0000      2.0000      2.0000 

    irrep                884a        885a        886a        887a        888a   
 eigenvalues H         -0.08639    -0.08085    -0.07898    -0.07730    -0.07507
            eV          -2.3509     -2.2002     -2.1493     -2.1035     -2.0427
 
 ==============================================================================
                                  COSMO RESULTS
 ==============================================================================
  PARAMETER:
    nppa:      1082
    nspa:        92
    nsph:        32
    nps:      10632
    npspher:   4447
    disex:   10.0000    
    disex2:  5300.81    
    rsolv [A]: 1.3000
    routf:     0.8500
    phsran:    0.0    
    ampran:   0.10E-04
    cavity:  closed
    epsilon:    80.000
    refind:     1.300
    fepsi:      0.9813665
  CAVITY VOLUME/AREA [a.u.]:
    surface: V1.0, A matrix: V1.0
    area: 10379.61
    volume: 24700.77
  SCREENING CHARGE:
    cosmo      :  -0.083836
    correction :   0.081572
    total      :  -0.002264
  ENERGIES [a.u.]:
    Total energy            =   *******************
    Total energy + OC corr. =   -23154.3764308367
    Dielectric energy       =       -0.1146027727
    Diel. energy + OC corr. =       -0.1136656355
  ELEMENT RADIUS [A]: ATOM LIST
    c  2.00: 1-4,6-9,11-14,16-19,21-24,26-29,31-34,36-39,41-44,46-49,51-54,
             56-59,61-64,66-69,71-74,76-79,81-84,86-89,91-94,96-99,101-104,
             106-109,111-114,116-119,121-124,126-129,131-134,136-139,141-144,
             146-149,151-154,156-159,161-164,166-169,171-174,176-179,181-184,
             186-189,191-194,196-199,201-204,206-209
    s  2.16: 5,10,15,20,25,30,35,40,45,50,55,60,65,70,75,80,85,90,95,100,105,
             110,115,120,125,130,135,140,145,150,155,160,165,170,175,180,185,
             190,195,200,205,210
    h  1.30: 211-296
 ==============================================================================
 
 
 
 ==============================================================================
                           electrostatic moments
 ==============================================================================

 reference point for electrostatic moments:    0.00000   0.00000   0.00000

 
              nuc           elec       ->  total
 ------------------------------------------------------------------------------
                          charge      
 ------------------------------------------------------------------------------
        1766.000000   -1766.000000       0.000000
 
 ------------------------------------------------------------------------------
                       dipole moment  
 ------------------------------------------------------------------------------
   x    -136.835945     137.945671       1.109726
   y    -276.254557     278.310671       2.056114
   z     105.891030    -106.878717      -0.987687
 
   | dipole moment | =     2.5367 a.u. =     6.4475 debye 
 
 ------------------------------------------------------------------------------
                     quadrupole moment
 ------------------------------------------------------------------------------
  xx  654010.004748 -654901.327120    -891.322372
  yy  670491.543059 -671310.398185    -818.855126
  zz  107156.437406 -108188.098886   -1031.661480
  xy   40194.698195  -40194.583412       0.114782
  xz   39965.818020  -39979.208598     -13.390578
  yz   51602.582428  -51624.576143     -21.993715
 
     1/3  trace=    -913.946326
     anisotropy=     192.628369
 
 ==============================================================================
 


    ------------------------------------------------------------------------
         total  cpu-time :  3 hours 35 minutes and 54 seconds
         total wall-time :  1 hours 56 minutes and 31 seconds
    ------------------------------------------------------------------------

   ****  ridft : all done  ****


    2019-09-09 18:15:25.555 

 ridft ended normally
