51
	Energy:     147.8410709
C         -1.08262        2.95013        0.02226
C         -2.36003        2.36753        0.10019
C         -2.49800        0.96417        0.20505
C         -1.36160        0.13321        0.23282
C         -0.09992        0.72124        0.15495
C          0.02027        2.10588        0.05191
S          1.63220        2.43809       -0.01762
N          1.08896        0.02473        0.17144
C          2.16560        0.85971        0.08087
C          3.57288        0.39951        0.07341
C          4.62774        1.31461       -0.02330
C          5.95451        0.87585       -0.03129
C          6.27246       -0.50306        0.05925
C          5.18987       -1.41349        0.15741
C          3.86637       -0.96543        0.16325
H          4.43000        2.37652       -0.09235
H          5.33755       -2.47622        0.22217
H          3.06756       -1.69313        0.23725
H          6.71136        1.63594       -0.10098
C          7.71616       -0.98603        0.05091
C          8.78881       -0.09893       -0.18655
C         10.11383       -0.54227       -0.19568
C         10.44037       -1.89775        0.03361
C          9.36640       -2.78444        0.27214
C          8.04146       -2.34089        0.27984
H          8.63219        0.94724       -0.37805
H          7.28888       -3.08282        0.47694
H         10.86423        0.20216       -0.38835
O         -3.45395        3.14780        0.07484
H         -0.96032        4.02274       -0.05840
H         -3.48449        0.52219        0.26462
H         -1.46716       -0.94108        0.31306
C         16.00157       -3.75657       -0.00757
N         16.97031       -2.94896       -0.20920
S         16.47156       -5.48026        0.25705
C         18.23890       -5.02505        0.06357
C         18.23005       -3.55857       -0.18706
H         18.68097       -5.54762       -0.81033
H         18.79917       -5.23784        0.99793
O         19.25294       -2.91713       -0.36387
H          9.51965       -3.83135        0.45891
C         11.88571       -2.38162        0.02364
C         12.96341       -1.48738       -0.19891
C         14.28666       -1.93581       -0.20769
C         14.58848       -3.28768        0.00396
C         13.53695       -4.18539        0.22559
C         12.21052       -3.74557        0.23609
H         12.81383       -0.43704       -0.36796
H         15.07860       -1.21778       -0.38155
H         13.73422       -5.23580        0.39223
H         11.46056       -4.49453        0.41155
