 operating system is UNIX !

 ridft (yamuna) : TURBOMOLE V7.2 ( 21454 ) 4 Oct 2017 at 12:48:15
 Copyright (C) 2017 TURBOMOLE GmbH, Karlsruhe


    2019-08-21 12:28:20.061 



                                  r i d f t

                        DFT program with RI approximation 
                                for coulomb part 




                                                 
                                 References:     
                                                 
          TURBOMOLE:                             
              R. Ahlrichs, M. Baer, M. Haeser, H. Horn, and
              C. Koelmel
              Electronic structure calculations on workstation
              computers: the program system TURBOMOLE
              Chem. Phys. Lett. 162: 165 (1989)
          Density Functional:                              
              O. Treutler and R. Ahlrichs                      
              Efficient Molecular Numerical Integration Schemes
              J. Chem. Phys. 102: 346 (1995)                   
          Parallel Version:                                
              Performance of parallel TURBOMOLE for Density    
              Functional Calculations                          
              M. v. Arnim and R. Ahlrichs                      
              J. Comp. Chem. 19: 1746 (1998)                   
          RI-J Method:                                     
              Auxiliary Basis Sets to approximate Coulomb      
              Potentials                                       
              Chem. Phys. Lett. 240: 283 (1995)                
              K. Eichkorn, O. Treutler, H. Oehm, M. Haeser     
              and R. Ahlrichs                                  
              Chem. Phys. Lett. 242: 652 (1995)                
                                                           
              Auxiliary Basis Sets for Main Row Atoms and their
              Use to approximate Coulomb Potentials            
              K. Eichkorn, F. Weigend, O. Treutler and         
              R. Ahlrichs                                      
              Theo. Chem. Acc. 97: 119 (1997)                   
                                                           
              Accurate Coulomb-fitting basis sets for H to Rn 
              F. Weigend                                        
              Phys. Chem. Chem. Phys. 8: 1057 (2006)            
                                                           
          Multipole accelerated RI-J (MARI-J):             
              Fast evaluation of the Coulomb potential for     
              electron densities using multipole accelerated   
              resolution of identity approximation             
              M. Sierka, A. Hogekamp and R. Ahlrichs           
              J. Chem. Phys. 118: 9136 (2003)                  
          RI-JK Method:                                     
              A fully direct RI-HF algorithm: Implementation,
              optimised auxiliary basis sets, demonstration of
              accuracy and efficiency                         
              F. Weigend                                      
              Phys. Chem. Chem. Phys. 4: 4285 (2002)           
          Two-component HF and DFT with spin-orbit coupling:  
              Self-consistent treatment of spin-orbit         
              interactions with efficient Hartree-Fock and    
              density functional methods                      
              M. K. Armbruster, F. Weigend, C. van Wüllen and 
              W. Klopper                                      
              Phys. Chem. Chem. Phys. 10: 1748 (2008)         
          Relativistic all-electron 2c calculations           
              An efficient implementation of two-component    
              relativistic exact-decoupling methods for large 
              molecules                                       
              D. Peng, N. Middendorf, F. Weigend, M. Reiher   
              J. Chem. Phys. 138, 184105 (2013)               
                                         




              +--------------------------------------------------+
              |      general information about current run       |
              +--------------------------------------------------+

 

 DENSITY CONVERGENCE CHECK SWITCHED ON !
 SCF CONVERGENCE IF RMS(delta[D]) <     0.1000000000E-06

 PBE0 hybrid functional
 exchange:    3/4 (LDA+PBE) + 1/4 HF
 correlation: LDA (PW) + PBE
 A Hybrid-DFT calculation using the RI-J approximation will be carried out.
 Allocatable memory for RI due to $ricore (MB):                   500


              +--------------------------------------------------+
              | Atomic coordinate, charge and isotop information |
              +--------------------------------------------------+

                    atomic coordinates            atom    charge  isotop
         -1.72870257   -4.00155178    0.06857816    c      6.000     0
         -2.70850667   -6.45657059   -0.19180720    c      6.000     0
         -1.00423826   -8.49282608   -0.25794762    c      6.000     0
          1.59124389   -8.05631824   -0.07364263    c      6.000     0
          2.47128935   -5.58368719    0.17566894    c      6.000     0
          0.80814138   -3.62872771    0.24262194    n      7.000     0
         -2.97219906   -2.37935417    0.12971080    h      1.000     0
         -1.67448633  -10.41662398   -0.45245713    h      1.000     0
          2.90864757   -9.62006662   -0.12570458    h      1.000     0
         -5.47143746   -6.87718583   -0.39506615    c      6.000     0
         -7.08501791   -4.90899827   -0.31231504    o      8.000     0
         -6.36975657   -9.13015512   -0.66945438    o      8.000     0
          4.47761159   -5.21732598    0.31586772    h      1.000     0
 
       center of nuclear mass  :   -2.32152484   -6.36632791   -0.16822624
       center of nuclear charge:   -2.22767846   -6.38343699   -0.16402673

              +--------------------------------------------------+
              |               basis set information              |
              +--------------------------------------------------+

              we will work with the 1s 3p 5d 7f 9g ... basis set
              ...i.e. with spherical basis functions...

   type   atoms  prim   cont   basis
   ---------------------------------------------------------------------------
    c        6     24     14   def2-SVP   [3s2p1d|7s4p1d]
    n        1     24     14   def2-SVP   [3s2p1d|7s4p1d]
    h        4      7      5   def2-SVP   [2s1p|4s1p]
    o        2     24     14   def2-SVP   [3s2p1d|7s4p1d]
   ---------------------------------------------------------------------------
   total:   13    244    146
   ---------------------------------------------------------------------------

   total number of primitive shells          :   41
   total number of contracted shells         :   66
   total number of cartesian basis functions :  155
   total number of SCF-basis functions       :  146


 integral neglect threshold       :  0.22E-09
 integral storage threshold THIZE :  0.10E-04
 integral storage threshold THIME :         5

 RI-J AUXILIARY BASIS SET information:

              we will work with the 1s 3p 5d 7f 9g ... basis set
              ...i.e. with spherical basis functions...

   type   atoms  prim   cont   basis
   ---------------------------------------------------------------------------
    c        6     70     49   def2-SVP   [6s4p3d1f1g|12s5p4d2f1g]
    n        1     70     49   def2-SVP   [6s4p3d1f1g|12s5p4d2f1g]
    h        4     16     11   def2-SVP   [3s1p1d|5s2p1d]
    o        2     70     49   def2-SVP   [6s4p3d1f1g|12s5p4d2f1g]
   ---------------------------------------------------------------------------
   total:   13    694    485
   ---------------------------------------------------------------------------

   total number of primitive shells          :   80
   total number of contracted shells         :  155
   total number of cartesian basis functions :  597
   total number of SCF-basis functions       :  485


 symmetry group of the molecule :   c1 

 the group has the following generators :
   c1(z)

    1 symmetry operations found

 there are 1 real representations :   a   

 maximum number of shells which are related by symmetry :  1

 ==============================================================================
                      COSMO switched on
 ==============================================================================
 COSMO stati: segments per atom: H   32 other atoms   92
 COSMO statistics: nps    570 npspher:    296
 COSMO surface:
   number of segments:  570
   area (bohr**2):      526.022002
   volume (bohr**3):    943.871138
 COSMO: check number of disjunct cavities:

       ... OK contiguous cavity found

    mo occupation :
   irrep   mo's   occupied
    a      146       32
 
 number of basis functions   :                    146
 number of occupied orbitals :                     32
 
  
           ------------------
           density functional
           ------------------
 PBE0 hybrid functional
 exchange:    3/4 (LDA+PBE) + 1/4 HF
 correlation: LDA (PW) + PBE

 spherical integration : Lebedev's spherical grid
 spherical gridsize    :                     5
    i.e. gridpoints    :                   590
 value for diffuse not defined
 radial integration    : Chebyshev 2nd kind (scaling 3)
 radial gridsize       :                     8
 integration cells     :                    13
 partition function    : becke
 partition sharpness   :                     3
  

 biggest AO integral is expected to be     4.776656448
  
           ------------------------
               RI-J - INFORMATION
           ------------------------
 Contributions to RI integral batches: 
  neglected integral batches:                   203
  direct contribution:                            0
  memory contribution:                  2008
 Memory core needed for (P|Q) and Cholesky      2 MByte
 Memory core minimum needed except of (P|Q)     1 MByte
 Total minimum memory core needed (sum)         2 MByte
  
 ****************************************
 Memory allocated for RI-J    52 MByte
 ****************************************
                                            

          ------------------------
          nuclear repulsion energy  :   390.517257495    
          ------------------------


         -----------------
         -S,T+V- integrals
         -----------------

 1e-integrals will be neglected if expon. factor < 0.215610E-10
 
   Difference densities algorithm switched on.
   The maximal number of linear combinations of
   difference densities is                    20 .

 DIIS switched on: error vector is FDS-SDF
 Max. Iterations for DIIS is     :   4
 DIIS matrix (see manual) 
    Scaling factor of diagonals  :  1.200
    threshold for scaling factor :  0.000

 scf convergence criterion : increment of total energy < .1000000D-05
                  and increment of one-electron energy < .1000000D-02

  MOs are in ASCII format !


 automatic virtual orbital shift switched on 
      shift if e(lumo)-e(homo) < 0.10000000    


 reading orbital data $scfmo  from file mos
 orbital characterization : scfconv=6

 DSCF restart information will be dumped onto file mos


 Starting SCF iterations

          Overall gridpoints after grid construction =        218180

 ITERATION  ENERGY          1e-ENERGY        2e-ENERGY     RMS[dD(SAO)]   TOL
   1  -435.57779302382    -1379.0451976     552.95014704    0.000D+00 0.215D-09
                            Exc = -43.8607174840     Coul =  610.724509884    
                            exK = -13.9136453614    
                              N = 64.000003279    
                          Ediel =-0.116799752308    
                            current damping = 0.700
 
          max. resid. norm for Fia-block=  1.994D-05 for orbital     31a         
          max. resid. fock norm         =  2.824D-05 for orbital     32a         

 ITERATION  ENERGY          1e-ENERGY        2e-ENERGY     RMS[dD(SAO)]   TOL
   2  -435.57779301805    -1379.0453455     552.95029496    0.140D-05 0.136D-09
                            Exc = -43.8607028849      Eck =  596.810997848    
                              N = 64.000003279    
                          Ediel =-0.116801444734    
                            current damping = 0.700
 
          Norm of current diis error: 0.10317E-03
          max. resid. norm for Fia-block=  6.386D-06 for orbital     31a         
          max. resid. fock norm         =  9.515D-06 for orbital     32a         

 ENERGY & DENSITY CONVERGED !


 ITERATION  ENERGY          1e-ENERGY        2e-ENERGY     RMS[dD(SAO)]   TOL
   3  -435.57779301764    -1379.0453387     552.95028822    0.405D-06 0.125D-09
                            Exc = -43.8607079348      Eck =  596.810996160    
                              N = 64.000003279    
                          Ediel =-0.116801353042    
                            current damping = 0.750
 
          Norm of current diis error: 0.45687E-04
          max. resid. norm for Fia-block=  2.130D-06 for orbital     28a         
          max. resid. fock norm         =  2.984D-06 for orbital     14a         

 End of SCF iterations
 COSMO: write data to file cosmo_transfer.tmp

   convergence criteria satisfied after     3 iterations


                  ------------------------------------------ 
                 |  total energy      =   -435.57779301764  |
                  ------------------------------------------ 
                 :  kinetic energy    =    431.39045623816  :
                 :  potential energy  =   -866.96824925580  :
                 :  virial theorem    =      1.99038670739  :
                 :  wavefunction norm =      1.00000000000  :
                  .......................................... 


 orbitals $scfmo  will be written to file mos

    irrep                 28a         29a         30a         31a         32a   
 eigenvalues H         -0.27174    -0.26967    -0.24317    -0.23313    -0.21492
            eV          -7.3945     -7.3381     -6.6170     -6.3438     -5.8483
 occupation              2.0000      2.0000      2.0000      2.0000      2.0000 

    irrep                 33a         34a         35a         36a         37a   
 eigenvalues H         -0.03787    -0.02074     0.08040     0.10032     0.13883
            eV          -1.0304     -0.5644      2.1878      2.7300      3.7777
 
 ==============================================================================
                                  COSMO RESULTS
 ==============================================================================
  PARAMETER:
    nppa:      1082
    nspa:        92
    nsph:        32
    nps:        570
    npspher:    296
    disex:   10.0000    
    disex2:  4682.81    
    rsolv [A]: 1.3000
    routf:     0.8500
    phsran:    0.0    
    ampran:   0.10E-04
    cavity:  closed
    epsilon:    80.000
    refind:     1.300
    fepsi:      0.9813665
  CAVITY VOLUME/AREA [a.u.]:
    surface: V1.0, A matrix: V1.0
    area:   526.02
    volume:   943.87
  SCREENING CHARGE:
    cosmo      :   0.982451
    correction :   0.016073
    total      :   0.998524
  ENERGIES [a.u.]:
    Total energy            =    -435.5777930176437
    Total energy + OC corr. =     -435.5797469825
    Dielectric energy       =       -0.1168013530
    Diel. energy + OC corr. =       -0.1187553179
  ELEMENT RADIUS [A]: ATOM LIST
    c  2.00: 1-5,10
    n  1.83: 6
    h  1.30: 7-9,13
    o  1.72: 11,12
 ==============================================================================
 
 
 
 ==============================================================================
                           electrostatic moments
 ==============================================================================

 reference point for electrostatic moments:    0.00000   0.00000   0.00000

 
              nuc           elec       ->  total
 ------------------------------------------------------------------------------
                          charge      
 ------------------------------------------------------------------------------
          63.000000     -64.000000      -1.000000
 
 ------------------------------------------------------------------------------
                       dipole moment  
 ------------------------------------------------------------------------------
   x    -140.343743     147.216158       6.872415
   y    -402.156530     408.055884       5.899354
   z     -10.333684      10.741861       0.408177
 
   | dipole moment | =     9.0664 a.u. =    23.0444 debye 
 
 ------------------------------------------------------------------------------
                     quadrupole moment
 ------------------------------------------------------------------------------
  xx    1070.342204   -1156.010787     -85.668583
  yy    2825.003138   -2905.523707     -80.520569
  zz       6.917193     -46.873229     -39.956036
  xy     959.803419   -1009.028563     -49.225144
  xz      73.440627     -76.889417      -3.448790
  yz      91.870217     -95.387925      -3.517708
 
     1/3  trace=     -68.715062
     anisotropy=      96.036242
 
 ==============================================================================
 


    ------------------------------------------------------------------------
         total  cpu-time :   4.70 seconds
         total wall-time :   4.71 seconds
    ------------------------------------------------------------------------

   ****  ridft : all done  ****


    2019-08-21 12:28:24.763 

