 operating system is UNIX !

 ridft (yamuna) : TURBOMOLE V7.2 ( 21454 ) 4 Oct 2017 at 12:48:15
 Copyright (C) 2017 TURBOMOLE GmbH, Karlsruhe


    2019-08-21 12:28:42.790 



                                  r i d f t

                        DFT program with RI approximation 
                                for coulomb part 




                                                 
                                 References:     
                                                 
          TURBOMOLE:                             
              R. Ahlrichs, M. Baer, M. Haeser, H. Horn, and
              C. Koelmel
              Electronic structure calculations on workstation
              computers: the program system TURBOMOLE
              Chem. Phys. Lett. 162: 165 (1989)
          Density Functional:                              
              O. Treutler and R. Ahlrichs                      
              Efficient Molecular Numerical Integration Schemes
              J. Chem. Phys. 102: 346 (1995)                   
          Parallel Version:                                
              Performance of parallel TURBOMOLE for Density    
              Functional Calculations                          
              M. v. Arnim and R. Ahlrichs                      
              J. Comp. Chem. 19: 1746 (1998)                   
          RI-J Method:                                     
              Auxiliary Basis Sets to approximate Coulomb      
              Potentials                                       
              Chem. Phys. Lett. 240: 283 (1995)                
              K. Eichkorn, O. Treutler, H. Oehm, M. Haeser     
              and R. Ahlrichs                                  
              Chem. Phys. Lett. 242: 652 (1995)                
                                                           
              Auxiliary Basis Sets for Main Row Atoms and their
              Use to approximate Coulomb Potentials            
              K. Eichkorn, F. Weigend, O. Treutler and         
              R. Ahlrichs                                      
              Theo. Chem. Acc. 97: 119 (1997)                   
                                                           
              Accurate Coulomb-fitting basis sets for H to Rn 
              F. Weigend                                        
              Phys. Chem. Chem. Phys. 8: 1057 (2006)            
                                                           
          Multipole accelerated RI-J (MARI-J):             
              Fast evaluation of the Coulomb potential for     
              electron densities using multipole accelerated   
              resolution of identity approximation             
              M. Sierka, A. Hogekamp and R. Ahlrichs           
              J. Chem. Phys. 118: 9136 (2003)                  
          RI-JK Method:                                     
              A fully direct RI-HF algorithm: Implementation,
              optimised auxiliary basis sets, demonstration of
              accuracy and efficiency                         
              F. Weigend                                      
              Phys. Chem. Chem. Phys. 4: 4285 (2002)           
          Two-component HF and DFT with spin-orbit coupling:  
              Self-consistent treatment of spin-orbit         
              interactions with efficient Hartree-Fock and    
              density functional methods                      
              M. K. Armbruster, F. Weigend, C. van Wüllen and 
              W. Klopper                                      
              Phys. Chem. Chem. Phys. 10: 1748 (2008)         
          Relativistic all-electron 2c calculations           
              An efficient implementation of two-component    
              relativistic exact-decoupling methods for large 
              molecules                                       
              D. Peng, N. Middendorf, F. Weigend, M. Reiher   
              J. Chem. Phys. 138, 184105 (2013)               
                                         




              +--------------------------------------------------+
              |      general information about current run       |
              +--------------------------------------------------+

 

 DENSITY CONVERGENCE CHECK SWITCHED ON !
 SCF CONVERGENCE IF RMS(delta[D]) <     0.1000000000E-06

 PBE0 hybrid functional
 exchange:    3/4 (LDA+PBE) + 1/4 HF
 correlation: LDA (PW) + PBE
 A Hybrid-DFT calculation using the RI-J approximation will be carried out.
 Allocatable memory for RI due to $ricore (MB):                   500


              +--------------------------------------------------+
              | Atomic coordinate, charge and isotop information |
              +--------------------------------------------------+

                    atomic coordinates            atom    charge  isotop
          0.03016003   -1.27397777    0.44746825    c      6.000     0
         -0.09807679    1.50558260    0.75228108    c      6.000     0
         -2.18236912   -2.73539747    0.17102022    c      6.000     0
          2.39084371   -2.50462412    0.49062960    c      6.000     0
         -2.02404787   -5.36476242   -0.02672073    c      6.000     0
          0.32818874   -6.56077009   -0.00228657    c      6.000     0
          2.53268655   -5.13181588    0.23878579    c      6.000     0
          0.43781175   -8.59628859   -0.16571008    h      1.000     0
         -3.72916665   -6.48306455   -0.18776319    h      1.000     0
          4.35428806   -6.06401778    0.24041096    h      1.000     0
          4.12351470   -1.43178880    0.67839278    h      1.000     0
         -4.47938793   -1.63911065    0.16928167    o      8.000     0
         -1.66998878    2.86998377   -0.82395839    o      8.000     0
          1.41952448    2.59421604    2.56613470    o      8.000     0
          1.18582205    4.40453588    2.95371753    h      1.000     0
 
       center of nuclear mass  :   -0.41944177   -1.62017099    0.43033970
       center of nuclear charge:   -0.36059488   -1.68964087    0.43996870

              +--------------------------------------------------+
              |               basis set information              |
              +--------------------------------------------------+

              we will work with the 1s 3p 5d 7f 9g ... basis set
              ...i.e. with spherical basis functions...

   type   atoms  prim   cont   basis
   ---------------------------------------------------------------------------
    c        7     24     14   def2-SVP   [3s2p1d|7s4p1d]
    h        5      7      5   def2-SVP   [2s1p|4s1p]
    o        3     24     14   def2-SVP   [3s2p1d|7s4p1d]
   ---------------------------------------------------------------------------
   total:   15    275    165
   ---------------------------------------------------------------------------

   total number of primitive shells          :   29
   total number of contracted shells         :   75
   total number of cartesian basis functions :  175
   total number of SCF-basis functions       :  165


 integral neglect threshold       :  0.19E-09
 integral storage threshold THIZE :  0.10E-04
 integral storage threshold THIME :         5

 RI-J AUXILIARY BASIS SET information:

              we will work with the 1s 3p 5d 7f 9g ... basis set
              ...i.e. with spherical basis functions...

   type   atoms  prim   cont   basis
   ---------------------------------------------------------------------------
    c        7     70     49   def2-SVP   [6s4p3d1f1g|12s5p4d2f1g]
    h        5     16     11   def2-SVP   [3s1p1d|5s2p1d]
    o        3     70     49   def2-SVP   [6s4p3d1f1g|12s5p4d2f1g]
   ---------------------------------------------------------------------------
   total:   15    780    545
   ---------------------------------------------------------------------------

   total number of primitive shells          :   56
   total number of contracted shells         :  175
   total number of cartesian basis functions :  670
   total number of SCF-basis functions       :  545


 symmetry group of the molecule :   c1 

 the group has the following generators :
   c1(z)

    1 symmetry operations found

 there are 1 real representations :   a   

 maximum number of shells which are related by symmetry :  1

 ==============================================================================
                      COSMO switched on
 ==============================================================================
 COSMO stati: segments per atom: H   32 other atoms   92
 COSMO statistics: nps    672 npspher:    317
 COSMO surface:
   number of segments:  672
   area (bohr**2):      577.883477
   volume (bohr**3):   1059.331593
 COSMO: check number of disjunct cavities:

       ... OK contiguous cavity found

    mo occupation :
   irrep   mo's   occupied
    a      165       36
 
 number of basis functions   :                    165
 number of occupied orbitals :                     36
 
  
           ------------------
           density functional
           ------------------
 PBE0 hybrid functional
 exchange:    3/4 (LDA+PBE) + 1/4 HF
 correlation: LDA (PW) + PBE

 spherical integration : Lebedev's spherical grid
 spherical gridsize    :                     5
    i.e. gridpoints    :                   590
 value for diffuse not defined
 radial integration    : Chebyshev 2nd kind (scaling 3)
 radial gridsize       :                     8
 integration cells     :                    15
 partition function    : becke
 partition sharpness   :                     3
  

 biggest AO integral is expected to be     4.776656448
  
           ------------------------
               RI-J - INFORMATION
           ------------------------
 Contributions to RI integral batches: 
  neglected integral batches:                   325
  direct contribution:                            0
  memory contribution:                  2525
 Memory core needed for (P|Q) and Cholesky      3 MByte
 Memory core minimum needed except of (P|Q)     1 MByte
 Total minimum memory core needed (sum)         3 MByte
  
 ****************************************
 Memory allocated for RI-J    72 MByte
 ****************************************
                                            

          ------------------------
          nuclear repulsion energy  :   478.245095950    
          ------------------------


         -----------------
         -S,T+V- integrals
         -----------------

 1e-integrals will be neglected if expon. factor < 0.190969E-10
 
   Difference densities algorithm switched on.
   The maximal number of linear combinations of
   difference densities is                    20 .

 DIIS switched on: error vector is FDS-SDF
 Max. Iterations for DIIS is     :   4
 DIIS matrix (see manual) 
    Scaling factor of diagonals  :  1.200
    threshold for scaling factor :  0.000

 scf convergence criterion : increment of total energy < .1000000D-05
                  and increment of one-electron energy < .1000000D-02

  MOs are in ASCII format !


 automatic virtual orbital shift switched on 
      shift if e(lumo)-e(homo) < 0.10000000    


 reading orbital data $scfmo  from file mos
 orbital characterization : scfconv=6

 DSCF restart information will be dumped onto file mos


 Starting SCF iterations

          Overall gridpoints after grid construction =        248881

 ITERATION  ENERGY          1e-ENERGY        2e-ENERGY     RMS[dD(SAO)]   TOL
   1  -494.61793148691    -1637.0112198     664.14819240    0.000D+00 0.190D-09
                            Exc = -49.4571676490     Coul =  729.291621639    
                            exK = -15.6862615869    
                              N = 72.000001925    
                          Ediel =-0.122260249959    
                            current damping = 0.700
 
          max. resid. norm for Fia-block=  9.550D-06 for orbital     33a         
          max. resid. fock norm         =  1.339D-05 for orbital     12a         

 ITERATION  ENERGY          1e-ENERGY        2e-ENERGY     RMS[dD(SAO)]   TOL
   2  -494.61793148568    -1637.0111270     664.14809956    0.600D-06 0.121D-09
                            Exc = -49.4571568928      Eck =  713.605256449    
                              N = 72.000001925    
                          Ediel =-0.122258427789    
                            current damping = 0.700
 
          Norm of current diis error: 0.44410E-04
          max. resid. norm for Fia-block=  2.236D-06 for orbital     34a         
          max. resid. fock norm         =  3.463D-06 for orbital    152a         

 ENERGY & DENSITY CONVERGED !


 ITERATION  ENERGY          1e-ENERGY        2e-ENERGY     RMS[dD(SAO)]   TOL
   3  -494.61793149457    -1637.0111026     664.14807518    0.215D-06 0.104D-09
                            Exc = -49.4571577680      Eck =  713.605232945    
                              N = 72.000001925    
                          Ediel =-0.122258759566    
                            current damping = 0.550
 
          Norm of current diis error: 0.16787E-04
          max. resid. norm for Fia-block=  1.486D-06 for orbital     36a         
          max. resid. fock norm         =  3.924D-06 for orbital    105a         

 End of SCF iterations
 COSMO: write data to file cosmo_transfer.tmp

   convergence criteria satisfied after     3 iterations


                  ------------------------------------------ 
                 |  total energy      =   -494.61793149457  |
                  ------------------------------------------ 
                 :  kinetic energy    =    489.84538460461  :
                 :  potential energy  =   -984.46331609917  :
                 :  virial theorem    =      1.99035104353  :
                 :  wavefunction norm =      1.00000000000  :
                  .......................................... 


 orbitals $scfmo  will be written to file mos

    irrep                 32a         33a         34a         35a         36a   
 eigenvalues H         -0.29949    -0.26947    -0.25043    -0.20065    -0.18045
            eV          -8.1497     -7.3328     -6.8145     -5.4599     -4.9105
 occupation              2.0000      2.0000      2.0000      2.0000      2.0000 

    irrep                 37a         38a         39a         40a         41a   
 eigenvalues H         -0.03291     0.02840     0.04546     0.08482     0.10184
            eV          -0.8956      0.7729      1.2370      2.3081      2.7712
 
 ==============================================================================
                                  COSMO RESULTS
 ==============================================================================
  PARAMETER:
    nppa:      1082
    nspa:        92
    nsph:        32
    nps:        672
    npspher:    317
    disex:   10.0000    
    disex2:  4483.57    
    rsolv [A]: 1.3000
    routf:     0.8500
    phsran:    0.0    
    ampran:   0.10E-04
    cavity:  closed
    epsilon:    80.000
    refind:     1.300
    fepsi:      0.9813665
  CAVITY VOLUME/AREA [a.u.]:
    surface: V1.0, A matrix: V1.0
    area:   577.88
    volume:  1059.33
  SCREENING CHARGE:
    cosmo      :   0.980395
    correction :   0.017855
    total      :   0.998249
  ENERGIES [a.u.]:
    Total energy            =    -494.6179314945657
    Total energy + OC corr. =     -494.6203078562
    Dielectric energy       =       -0.1222587596
    Diel. energy + OC corr. =       -0.1246351212
  ELEMENT RADIUS [A]: ATOM LIST
    c  2.00: 1-7
    h  1.30: 8-11,15
    o  1.72: 12-14
 ==============================================================================
 
 
 
 ==============================================================================
                           electrostatic moments
 ==============================================================================

 reference point for electrostatic moments:    0.00000   0.00000   0.00000

 
              nuc           elec       ->  total
 ------------------------------------------------------------------------------
                          charge      
 ------------------------------------------------------------------------------
          71.000000     -72.000000      -1.000000
 
 ------------------------------------------------------------------------------
                       dipole moment  
 ------------------------------------------------------------------------------
   x     -25.602236      29.199769       3.597533
   y    -119.964501     121.238287       1.273786
   z      31.237778     -30.549955       0.687822
 
   | dipole moment | =     3.8779 a.u. =     9.8566 debye 
 
 ------------------------------------------------------------------------------
                     quadrupole moment
 ------------------------------------------------------------------------------
  xx     377.068619    -434.729411     -57.660792
  yy    1010.207672   -1054.270948     -44.063276
  zz      74.209212    -119.265909     -45.056698
  xy      16.203667     -16.817567      -0.613900
  xz      50.443369     -51.016557      -0.573188
  yz      32.134588     -26.947989       5.186599
 
     1/3  trace=     -48.926922
     anisotropy=      15.974665
 
 ==============================================================================
 


    ------------------------------------------------------------------------
         total  cpu-time :   6.24 seconds
         total wall-time :   6.25 seconds
    ------------------------------------------------------------------------

   ****  ridft : all done  ****


    2019-08-21 12:28:49.033 

