15
	Energy:      23.4431914
C          0.01596       -0.67416        0.23679
C         -0.05190        0.79672        0.39809
C         -1.15486       -1.44751        0.09050
C          1.26518       -1.32539        0.25963
C         -1.07108       -2.83891       -0.01414
C          0.17367       -3.47181       -0.00121
C          1.34024       -2.71564        0.12636
H          0.23168       -4.54896       -0.08769
H         -1.97339       -3.43069       -0.09936
H          2.30419       -3.20894        0.12722
H          2.18207       -0.75767        0.35899
O         -2.37039       -0.86738        0.08958
O         -0.88372        1.51873       -0.43602
O          0.75118        1.37280        1.35794
H          0.62751        2.33078        1.56304
